/groups/wag/pkozlows/miniconda3/envs/pyscf/lib/python3.11/site-packages/pyscf/dft/libxc.py:772: UserWarning: Since PySCF-2.3, B3LYP (and B3P86) are changed to the VWN-RPA variant, the same to the B3LYP functional in Gaussian and ORCA (issue 1480). To restore the VWN5 definition, you can put the setting "B3LYP_WITH_VWN5 = True" in pyscf_conf.py
  warnings.warn('Since PySCF-2.3, B3LYP (and B3P86) are changed to the VWN-RPA variant, '
Discarded 6 diffused primitive functions, 0 contracted functions
#INFO: **** input file is /central/home/pkozlows/ch121b/gan/dft/szv/333/2/szv_3.py ****
# import statements
import pyscf.pbc.tools.pyscf_ase as pyscf_ase
import pyscf.pbc.gto as pbcgto
import pyscf.pbc.dft as pbcdft


from ase.build import bulk
from ase.dft.kpoints import sc_special_points as special_points, get_bandpath

import numpy as np

# ase
c = bulk('GaN', 'wurtzite', a=3.19, c=5.19)

# pyscf specs
cell = pbcgto.Cell()
cell.atom = pyscf_ase.ase_atoms_to_pyscf(c)
cell.a = c.cell
cell.exp_to_discard = 0.1

cell.basis = 'gth-szv'
cell.pseudo = 'gth-pade'
cell.verbose = 5
cell.build()

# define the special points here
points = special_points['hexagonal']
G = points['G']
K = points['K']
M = points['M']
A = points['A']
L = points['L']
H = points['H']

# Choose an appropriate path for the band structure calculation
band_kpts, kpath, sp_points = get_bandpath([G, M, K, G, A, L, H, A], c.cell, npoints=50)
band_kpts = cell.get_abs_kpts(band_kpts)

# dft calculation
kmf = pbcdft.KRKS(cell, cell.make_kpts([3,3,3]))
kmf.xc = 'b3pw91'
kmf.kernel()

# get the data from the calculation
e_kn_2 = kmf.get_bands(band_kpts)[0]
vbmax = -99
for en in e_kn_2:
    vb_k = en[cell.nelectron//2-1]
    if vb_k > vbmax:
        vbmax = vb_k
e_kn_2 = [en - vbmax for en in e_kn_2]

# Saving data to .npy files
np.save('band_kpts.npy', band_kpts)
np.save('kpath.npy', kpath)
np.save('sp_points.npy', sp_points)
np.save('e_kn_2.npy', e_kn_2)
np.save('nbands.npy', cell.nao_nr())







#INFO: ******************** input file end ********************


System: uname_result(system='Linux', node='hpc-19-23.cm.cluster', release='3.10.0-1160.53.1.el7.x86_64', version='#1 SMP Fri Jan 14 13:59:45 UTC 2022', machine='x86_64')  Threads 32
Python 3.11.5 (main, Sep 11 2023, 13:54:46) [GCC 11.2.0]
numpy 1.26.0  scipy 1.11.3
Date: Mon Oct 30 02:00:38 2023
PySCF version 2.3.0
PySCF path  /groups/wag/pkozlows/miniconda3/envs/pyscf/lib/python3.11/site-packages/pyscf

[ENV] PYSCF_CONFIG_FILE /home/pkozlows
[CONFIG] conf_file /home/pkozlows/.pyscf_conf.py
[INPUT] verbose = 5
[INPUT] max_memory = 426352 
[INPUT] num. atoms = 4
[INPUT] num. electrons = 36
[INPUT] charge = 0
[INPUT] spin (= nelec alpha-beta = 2S) = 0
[INPUT] symmetry False subgroup None
[INPUT] Mole.unit = angstrom
[INPUT] Symbol           X                Y                Z      unit          X                Y                Z       unit  Magmom
[INPUT]  1 Ga     0.000000000000   0.000000000000   0.000000000000 AA    0.000000000000   0.000000000000   0.000000000000 Bohr   0.0
[INPUT]  2 N     -0.000000000000   1.841747358715   0.643929030186 AA   -0.000000000000   3.480398098612   1.216849510709 Bohr   0.0
[INPUT]  3 Ga    -0.000000000000   1.841747358715   2.595000000000 AA   -0.000000000000   3.480398098612   4.903839293246 Bohr   0.0
[INPUT]  4 N      0.000000000000   0.000000000000   3.238929030186 AA    0.000000000000   0.000000000000   6.120688803955 Bohr   0.0
[INPUT] ---------------- BASIS SET ---------------- 
[INPUT] l, kappa, [nprim/nctr], expnt,             c_1 c_2 ...
[INPUT] Ga
[INPUT] 0    0    [5    /1   ]  7.06665397037     0.00403882881
                                3.42836918        -0.04992601521
                                1.43006411438     0.270487560795
                                0.571610928613    0.114461485481
                                0.232196966975    -0.765662388169
[INPUT] 1    0    [5    /1   ]  7.06665397037     0.000167446202
                                3.42836918        0.003362568505
                                1.43006411438     0.130532105798
                                0.571610928613    -0.096032824634
                                0.232196966975    -0.807329497232
[INPUT] 2    0    [5    /1   ]  7.06665397037     -0.311164169605
                                3.42836918        -0.386388805667
                                1.43006411438     -0.341437057173
                                0.571610928613    -0.20460821239
                                0.232196966975    -0.056129936831
[INPUT] N
[INPUT] 0    0    [4    /1   ]  6.1526903413      0.1506300537
                                1.823633228       -0.0360100734
                                0.567662887       -0.6942023212
                                0.1628222852      -0.3878929987
[INPUT] 1    0    [4    /1   ]  6.1526903413      -0.0950603476
                                1.823633228       -0.2918864295
                                0.567662887       -0.473905005
                                0.1628222852      -0.389341867

Ewald components = 6.77773183084737, -128.779455527716, 5.42224205397643
nuclear repulsion = -116.579481642892
number of shells = 10
number of NR pGTOs = 122
number of NR cGTOs = 26
basis = gth-szv
ecp = {}
CPU time:         0.52
lattice vectors  a1 [6.028226337, 0.000000000, 0.000000000]
                 a2 [-3.014113169, 5.220597148, 0.000000000]
                 a3 [0.000000000, 0.000000000, 9.807678586]
dimension = 3
low_dim_ft_type = None
Cell volume = 308.657
exp_to_discard = 0.1
rcut = 18.312728390691518 (nimgs = [4 4 2])
lattice sum = 461 cells
precision = 1e-08
pseudo = gth-pade
ke_cutoff = 887.7119060369721
    = [ 83  83 133] mesh (916237 PWs)
/groups/wag/pkozlows/miniconda3/envs/pyscf/lib/python3.11/site-packages/ase/dft/kpoints.py:357: UserWarning: Please do not use (kpts, x, X) = bandpath(...).  Use path = bandpath(...) and then kpts = path.kpts and (x, X, labels) = path.get_linear_kpoint_axis().
  warnings.warn('Please do not use (kpts, x, X) = bandpath(...).  '


******** <class 'pyscf.pbc.dft.krks.KRKS'> ********
method = KRKS-KohnShamDFT
initial guess = minao
damping factor = 0
level_shift factor = 0
DIIS = <class 'pyscf.scf.diis.CDIIS'>
diis_start_cycle = 1
diis_space = 8
SCF conv_tol = 1e-07
SCF conv_tol_grad = None
SCF max_cycles = 50
direct_scf = True
direct_scf_tol = 1e-13
chkfile to save SCF result = /tmp/tmp1tzfshi7
max_memory 426352 MB (current use 98 MB)


******** PBC SCF flags ********
N kpts = 27
kpts = [[0.         0.         0.        ]
 [0.         0.         0.21354647]
 [0.         0.         0.42709293]
 [0.         0.40117922 0.        ]
 [0.         0.40117922 0.21354647]
 [0.         0.40117922 0.42709293]
 [0.         0.80235844 0.        ]
 [0.         0.80235844 0.21354647]
 [0.         0.80235844 0.42709293]
 [0.3474314  0.20058961 0.        ]
 [0.3474314  0.20058961 0.21354647]
 [0.3474314  0.20058961 0.42709293]
 [0.3474314  0.60176883 0.        ]
 [0.3474314  0.60176883 0.21354647]
 [0.3474314  0.60176883 0.42709293]
 [0.3474314  1.00294806 0.        ]
 [0.3474314  1.00294806 0.21354647]
 [0.3474314  1.00294806 0.42709293]
 [0.6948628  0.40117922 0.        ]
 [0.6948628  0.40117922 0.21354647]
 [0.6948628  0.40117922 0.42709293]
 [0.6948628  0.80235844 0.        ]
 [0.6948628  0.80235844 0.21354647]
 [0.6948628  0.80235844 0.42709293]
 [0.6948628  1.20353767 0.        ]
 [0.6948628  1.20353767 0.21354647]
 [0.6948628  1.20353767 0.42709293]]
Exchange divergence treatment (exxdiv) = ewald
Ewald components = 2.23368679724563e-09, -0.129121640870431, 0.0670244764868704
    madelung (= occupied orbital energy shift) = 0.12419432429974722
    Total energy shift due to Ewald probe charge = -1/2 * Nelec*madelung = -2.2354978374
DF object = <pyscf.pbc.df.fft.FFTDF object at 0x7f39ff49a750>
XC functionals = b3pw91
small_rho_cutoff = 1e-07
Uniform grid, mesh = [ 83  83 133]
<class 'pyscf.pbc.dft.krks.KRKS'> does not have attributes  nlcgrids nlc
Set gradient conv threshold to 0.000316228
    CPU time for setting up grids      8.72 sec, wall time      0.58 sec
nelec by numeric integration = 35.99999999976246
    CPU time for vxc   2154.91 sec, wall time     74.73 sec
Ewald components = 2.23368679724563e-09, -0.129121640870431, 0.0670244764868704
    CPU time for vj and vk 267058.68 sec, wall time  16901.19 sec
Ewald components = 6.77773183084737, -128.779455527716, 5.42224205397643
E1 = (-88.12809278238271+7.452682615134857e-17j)  Ecoul = 61.47697800315473  Exc = -24.87259504674326
init E= -168.103191468863
cond(S) = [7.39940068 6.86196651 6.86196651 6.65283845 6.54972178 6.54972178
 6.65283845 6.54972178 6.54972178 6.65283845 6.54972178 6.54972178
 6.03013958 5.57180427 5.57180427 6.65283845 6.54972178 6.54972178
 6.65283845 6.54972178 6.54972178 6.65283845 6.54972178 6.54972178
 6.03013958 5.57180427 5.57180427]
/groups/wag/pkozlows/miniconda3/envs/pyscf/lib/python3.11/site-packages/pyscf/pbc/gto/cell.py:243: UserWarning: Function cell.dumps drops attribute a because it is not JSON-serializable
  warnings.warn(msg)
    CPU time for initialize scf 270349.77 sec, wall time  17030.46 sec
HOMO = 0.250620609508  LUMO = 0.607507828639
     k-point                  mo_energy
   0 ( 0.000  0.000  0.000)   [-0.44073709 -0.36434846 -0.09308086 -0.09296401 -0.09296401 -0.08716584
 -0.08716584 -0.06707454 -0.06707454 -0.06260396 -0.06260396 -0.04908203
  0.0018135   0.21485041  0.21485041  0.24886302  0.25062061  0.25062061] [0.60750783 0.65397691 0.82665125 0.82665125 0.84361648 0.87515029
 0.87515029 0.89825294]
   1 ( 0.000  0.000  0.333)   [-0.42382784 -0.38587683 -0.09278818 -0.0919411  -0.0919411  -0.08906219
 -0.08906219 -0.08086658 -0.06567426 -0.06567426 -0.0634253  -0.0634253
  0.07834914  0.18766281  0.22374223  0.22374223  0.24161908  0.24161908] [0.66081884 0.66935365 0.81178327 0.83730462 0.83730462 0.85210671
 0.86152163 0.86152163]
   2 ( 0.000  0.000  0.667)   [-0.42382784 -0.38587683 -0.09278818 -0.0919411  -0.0919411  -0.08906219
 -0.08906219 -0.08086658 -0.06567426 -0.06567426 -0.0634253  -0.0634253
  0.07834914  0.18766281  0.22374223  0.22374223  0.24161908  0.24161908] [0.66081884 0.66935365 0.81178327 0.83730462 0.83730462 0.85210671
 0.86152163 0.86152163]
   3 ( 0.000  0.333  0.000)   [-0.39094384 -0.34504786 -0.09207522 -0.08726813 -0.0856273  -0.07647758
 -0.07618684 -0.07063236 -0.0663246  -0.06530773 -0.0618396  -0.03952154
  0.04267086  0.09263858  0.12713207  0.16866152  0.21242827  0.22438529] [0.69621391 0.73595282 0.77334475 0.83249575 0.86055361 0.86859201
 0.91443433 0.91793004]
   4 ( 0.000  0.333  0.333)   [-0.37942178 -0.3562888  -0.0925425  -0.08859819 -0.08475585 -0.07919598
 -0.07762664 -0.07598299 -0.0645769  -0.06322188 -0.06289513 -0.05354256
  0.05683324  0.09134908  0.14971799  0.18224961  0.20632333  0.21000574] [0.67655211 0.72181812 0.78754186 0.81684887 0.87542014 0.8790267
 0.90165882 0.90403242]
   5 ( 0.000  0.333  0.667)   [-0.37942178 -0.35628879 -0.09254296 -0.08859735 -0.0847559  -0.07919589
 -0.07762739 -0.07598293 -0.06457702 -0.06322126 -0.06289504 -0.05354288
  0.05683321  0.09134923  0.14971779  0.18224961  0.20632344  0.21000574] [0.67655212 0.72181806 0.78754136 0.81684961 0.87542011 0.87902686
 0.90165847 0.90403245]
   6 ( 0.000  0.667  0.000)   [-0.39094384 -0.34504786 -0.09207522 -0.08726813 -0.0856273  -0.07647758
 -0.07618684 -0.07063236 -0.0663246  -0.06530773 -0.0618396  -0.03952154
  0.04267086  0.09263858  0.12713207  0.16866152  0.21242827  0.22438529] [0.69621391 0.73595282 0.77334475 0.83249575 0.86055361 0.86859201
 0.91443433 0.91793004]
   7 ( 0.000  0.667  0.333)   [-0.37942178 -0.35628879 -0.09254296 -0.08859735 -0.0847559  -0.07919589
 -0.07762739 -0.07598293 -0.06457702 -0.06322126 -0.06289504 -0.05354288
  0.05683321  0.09134923  0.14971779  0.18224961  0.20632344  0.21000574] [0.67655212 0.72181806 0.78754136 0.81684961 0.87542011 0.87902686
 0.90165847 0.90403245]
   8 ( 0.000  0.667  0.667)   [-0.37942178 -0.3562888  -0.0925425  -0.08859819 -0.08475585 -0.07919598
 -0.07762664 -0.07598299 -0.0645769  -0.06322188 -0.06289513 -0.05354256
  0.05683324  0.09134908  0.14971799  0.18224961  0.20632333  0.21000574] [0.67655211 0.72181812 0.78754186 0.81684887 0.87542014 0.8790267
 0.90165882 0.90403242]
   9 ( 0.333  0.000  0.000)   [-0.39094384 -0.34504786 -0.09207522 -0.08726813 -0.0856273  -0.07647758
 -0.07618684 -0.07063236 -0.0663246  -0.06530773 -0.0618396  -0.03952154
  0.04267086  0.09263858  0.12713207  0.16866152  0.21242827  0.22438529] [0.69621391 0.73595282 0.77334475 0.83249575 0.86055361 0.86859201
 0.91443433 0.91793004]
  10 ( 0.333  0.000  0.333)   [-0.37942178 -0.35628879 -0.09254296 -0.08859735 -0.0847559  -0.07919589
 -0.07762739 -0.07598293 -0.06457702 -0.06322126 -0.06289504 -0.05354288
  0.05683321  0.09134923  0.14971779  0.18224961  0.20632344  0.21000574] [0.67655212 0.72181806 0.78754136 0.81684961 0.87542011 0.87902686
 0.90165847 0.90403245]
  11 ( 0.333  0.000  0.667)   [-0.37942178 -0.3562888  -0.0925425  -0.08859819 -0.08475585 -0.07919598
 -0.07762664 -0.07598299 -0.0645769  -0.06322188 -0.06289513 -0.05354256
  0.05683324  0.09134908  0.14971799  0.18224961  0.20632333  0.21000574] [0.67655211 0.72181812 0.78754186 0.81684887 0.87542014 0.8790267
 0.90165882 0.90403242]
  12 ( 0.333  0.333  0.000)   [-0.34907779 -0.34907733 -0.09141854 -0.07913717 -0.07913572 -0.07017569
 -0.06822148 -0.06821961 -0.06574561 -0.06554255 -0.0444574  -0.04445731
  0.06303748  0.06303781  0.07641925  0.1563296   0.15633058  0.16742374] [0.7329344  0.80483924 0.80483982 0.85126015 0.85126068 0.86126426
 0.90280739 0.90280753]
  13 ( 0.333  0.333  0.333)   [-0.34765223 -0.34765177 -0.08702188 -0.08308869 -0.08308732 -0.07619034
 -0.0691262  -0.06912427 -0.06652872 -0.06607868 -0.04118615 -0.04118606
  0.04255583  0.04255596  0.09843896  0.14319193  0.18737268  0.18737354] [0.74713295 0.74713311 0.76844039 0.83223274 0.85400964 0.85401053
 0.9356208  0.93562148]
  14 ( 0.333  0.333  0.667)   [-0.34765223 -0.34765177 -0.08702188 -0.08308869 -0.08308732 -0.07619034
 -0.0691262  -0.06912427 -0.06652872 -0.06607868 -0.04118615 -0.04118606
  0.04255583  0.04255596  0.09843896  0.14319193  0.18737268  0.18737354] [0.74713295 0.74713311 0.76844039 0.83223274 0.85400964 0.85401053
 0.9356208  0.93562148]
  15 ( 0.333  0.667  0.000)   [-0.39094384 -0.34504786 -0.09207522 -0.08726813 -0.0856273  -0.07647758
 -0.07618684 -0.07063236 -0.0663246  -0.06530773 -0.0618396  -0.03952154
  0.04267086  0.09263858  0.12713207  0.16866152  0.21242827  0.22438529] [0.69621391 0.73595282 0.77334475 0.83249575 0.86055361 0.86859201
 0.91443433 0.91793004]
  16 ( 0.333  0.667  0.333)   [-0.37942178 -0.3562888  -0.0925425  -0.08859819 -0.08475585 -0.07919598
 -0.07762664 -0.07598299 -0.0645769  -0.06322188 -0.06289513 -0.05354256
  0.05683324  0.09134908  0.14971799  0.18224961  0.20632333  0.21000574] [0.67655211 0.72181812 0.78754186 0.81684887 0.87542014 0.8790267
 0.90165882 0.90403242]
  17 ( 0.333  0.667  0.667)   [-0.37942178 -0.35628879 -0.09254296 -0.08859735 -0.0847559  -0.07919589
 -0.07762739 -0.07598293 -0.06457702 -0.06322126 -0.06289504 -0.05354288
  0.05683321  0.09134923  0.14971779  0.18224961  0.20632344  0.21000574] [0.67655212 0.72181806 0.78754136 0.81684961 0.87542011 0.87902686
 0.90165847 0.90403245]
  18 ( 0.667  0.000  0.000)   [-0.39094384 -0.34504786 -0.09207522 -0.08726813 -0.0856273  -0.07647758
 -0.07618684 -0.07063236 -0.0663246  -0.06530773 -0.0618396  -0.03952154
  0.04267086  0.09263858  0.12713207  0.16866152  0.21242827  0.22438529] [0.69621391 0.73595282 0.77334475 0.83249575 0.86055361 0.86859201
 0.91443433 0.91793004]
  19 ( 0.667  0.000  0.333)   [-0.37942178 -0.3562888  -0.0925425  -0.08859819 -0.08475585 -0.07919598
 -0.07762664 -0.07598299 -0.0645769  -0.06322188 -0.06289513 -0.05354256
  0.05683324  0.09134908  0.14971799  0.18224961  0.20632333  0.21000574] [0.67655211 0.72181812 0.78754186 0.81684887 0.87542014 0.8790267
 0.90165882 0.90403242]
  20 ( 0.667  0.000  0.667)   [-0.37942178 -0.35628879 -0.09254296 -0.08859735 -0.0847559  -0.07919589
 -0.07762739 -0.07598293 -0.06457702 -0.06322126 -0.06289504 -0.05354288
  0.05683321  0.09134923  0.14971779  0.18224961  0.20632344  0.21000574] [0.67655212 0.72181806 0.78754136 0.81684961 0.87542011 0.87902686
 0.90165847 0.90403245]
  21 ( 0.667  0.333  0.000)   [-0.39094384 -0.34504786 -0.09207522 -0.08726813 -0.0856273  -0.07647758
 -0.07618684 -0.07063236 -0.0663246  -0.06530773 -0.0618396  -0.03952154
  0.04267086  0.09263858  0.12713207  0.16866152  0.21242827  0.22438529] [0.69621391 0.73595282 0.77334475 0.83249575 0.86055361 0.86859201
 0.91443433 0.91793004]
  22 ( 0.667  0.333  0.333)   [-0.37942178 -0.35628879 -0.09254296 -0.08859735 -0.0847559  -0.07919589
 -0.07762739 -0.07598293 -0.06457702 -0.06322126 -0.06289504 -0.05354288
  0.05683321  0.09134923  0.14971779  0.18224961  0.20632344  0.21000574] [0.67655212 0.72181806 0.78754136 0.81684961 0.87542011 0.87902686
 0.90165847 0.90403245]
  23 ( 0.667  0.333  0.667)   [-0.37942178 -0.3562888  -0.0925425  -0.08859819 -0.08475585 -0.07919598
 -0.07762664 -0.07598299 -0.0645769  -0.06322188 -0.06289513 -0.05354256
  0.05683324  0.09134908  0.14971799  0.18224961  0.20632333  0.21000574] [0.67655211 0.72181812 0.78754186 0.81684887 0.87542014 0.8790267
 0.90165882 0.90403242]
  24 ( 0.667  0.667  0.000)   [-0.34907779 -0.34907733 -0.09141854 -0.07913717 -0.07913572 -0.07017569
 -0.06822148 -0.06821961 -0.06574561 -0.06554255 -0.0444574  -0.04445731
  0.06303748  0.06303781  0.07641925  0.1563296   0.15633058  0.16742374] [0.7329344  0.80483924 0.80483982 0.85126015 0.85126068 0.86126426
 0.90280739 0.90280753]
  25 ( 0.667  0.667  0.333)   [-0.34765223 -0.34765177 -0.08702188 -0.08308869 -0.08308732 -0.07619034
 -0.0691262  -0.06912427 -0.06652872 -0.06607868 -0.04118615 -0.04118606
  0.04255583  0.04255596  0.09843896  0.14319193  0.18737268  0.18737354] [0.74713295 0.74713311 0.76844039 0.83223274 0.85400964 0.85401053
 0.9356208  0.93562148]
  26 ( 0.667  0.667  0.667)   [-0.34765223 -0.34765177 -0.08702188 -0.08308869 -0.08308732 -0.07619034
 -0.0691262  -0.06912427 -0.06652872 -0.06607868 -0.04118615 -0.04118606
  0.04255583  0.04255596  0.09843896  0.14319193  0.18737268  0.18737354] [0.74713295 0.74713311 0.76844039 0.83223274 0.85400964 0.85401053
 0.9356208  0.93562148]
nelec by numeric integration = 35.99999999994686
    CPU time for vxc    642.20 sec, wall time     23.58 sec
Ewald components = 2.23368679724563e-09, -0.129121640870431, 0.0670244764868704
    CPU time for vj and vk 183103.30 sec, wall time  11320.23 sec
Ewald components = 6.77773183084737, -128.779455527716, 5.42224205397643
E1 = (-87.9137697169363+7.478585651988901e-17j)  Ecoul = 61.4585500761473  Exc = -58.74559848872974
cycle= 1 E= -201.780299772411  delta_E= -33.7  |g|= 1.28e+03  |ddm|= 18.7
    CPU time for cycle= 1 183747.35 sec, wall time  11343.93 sec
HOMO = 0.432564667664  LUMO = 0.432564821422

WARN: HOMO 0.432564667664 == LUMO 0.432564821422

     k-point                  mo_energy
   0 ( 0.000  0.000  0.000)   [-380.87951071 -252.88869167 -219.71607035 -159.47561306 -141.06832484
 -122.56549456  -96.68790601  -67.38426919  -45.93591756  -37.05737557
  -22.67604071   -7.6991503    -3.92803221   -2.23765963] [ 12.20565274  16.46136507  36.49529816  45.20024651  56.94293609
  71.99207276 117.47548266 138.78185485 168.3910113  219.09865002
 289.41894721 630.25733251]
   1 ( 0.000  0.000  0.333)   [-2.76834614e+02 -1.84304174e+01 -2.69471454e-01 -2.65760107e-01
 -2.64117205e-01 -2.63763489e-01 -2.63458176e-01 -2.59024297e-01
 -2.57904936e-01 -2.57019167e-01 -2.56331130e-01 -1.51508653e-01
 -6.19766943e-02  2.37327458e-01  3.14485131e-01] [0.45167497 0.46322872 0.49046807 0.50781938 0.73577741 0.78931109
 0.84756295 0.85330308 0.89078211 0.91055021 0.95488886]
   2 ( 0.000  0.000  0.667)   [-43.54518876  -3.20665244  -0.26911593  -0.26549645  -0.26411721
  -0.26375726  -0.26345819  -0.25912371  -0.25790494  -0.25699274
  -0.25633113  -0.15233133  -0.07815223   0.17885214   0.36306397] [0.44382526 0.46322861 0.48708819 0.50781936 0.67740291 0.81661931
 0.84756296 0.85170253 0.90069883 0.9105502  1.0035772 ]
   3 ( 0.000  0.333  0.000)   [-3.94174711e+00 -5.93140617e-01 -2.72893692e-01 -2.68712693e-01
 -2.62580637e-01 -2.62110557e-01 -2.60290510e-01 -2.59027110e-01
 -2.58521538e-01 -2.57876982e-01 -2.55488963e-01 -8.64950779e-02
 -4.21485734e-04  2.18166707e-01  2.33749855e-01  3.55031278e-01
  3.83493536e-01  4.21278319e-01] [0.46680381 0.75807339 0.8278713  0.88219043 0.90566395 1.01189568
 1.06227824 1.07388586]
   4 ( 0.000  0.333  0.333)   [-6.13334012e+01 -4.86258677e+00 -2.71427416e-01 -2.63652273e-01
 -2.62030420e-01 -2.61303473e-01 -2.60386019e-01 -2.59442028e-01
 -2.57807793e-01 -2.57255056e-01 -2.56171961e-01 -1.02657649e-01
 -5.12277630e-02  6.35230614e-02  2.27518756e-01  3.32430887e-01
  3.78292839e-01  4.25915032e-01  4.32564668e-01] [0.60681113 0.80638602 0.84178525 0.9509743  0.99413637 1.02801585
 1.08443882]
   5 ( 0.000  0.333  0.667)   [-1.82951552e+02 -1.61983188e+01 -2.71194397e-01 -2.69430369e-01
 -2.62711591e-01 -2.61824462e-01 -2.60275728e-01 -2.58678354e-01
 -2.57579059e-01 -2.57305218e-01 -2.56640063e-01 -8.90464467e-02
 -3.04382165e-02  1.19306911e-01  2.67473945e-01  3.41423621e-01
  3.78622540e-01  3.94470552e-01] [0.43265587 0.63655059 0.7722904  0.84643945 0.95112919 1.0019126
 1.02765768 1.04135361]
   6 ( 0.000  0.667  0.000)   [-2.36393795e+02 -1.83173728e+01 -2.72201831e-01 -2.69481885e-01
 -2.62704746e-01 -2.62267527e-01 -2.59931297e-01 -2.58783820e-01
 -2.58425736e-01 -2.57896074e-01 -2.55864145e-01 -8.95172621e-02
 -1.01468102e-03  2.17500725e-01  2.33916300e-01  3.47473319e-01
  3.83085437e-01  4.26434320e-01] [0.4568988  0.74137091 0.82945202 0.88003049 0.9157964  0.97574568
 1.05954184 1.08049736]
   7 ( 0.000  0.667  0.333)   [-4.40104208e+02 -3.63750142e+01 -2.71940751e-01 -2.68236449e-01
 -2.62944112e-01 -2.61672704e-01 -2.60528113e-01 -2.58907121e-01
 -2.57735119e-01 -2.57265985e-01 -2.56205355e-01 -1.09351506e-01
 -3.27510931e-02  1.64186060e-01  2.79296935e-01  3.15450289e-01
  3.80551482e-01  4.04649635e-01] [0.43439708 0.62325645 0.77841188 0.91871455 0.96873637 0.98921715
 1.01540059 1.06434503]
   8 ( 0.000  0.667  0.667)   [-4.51657002 -0.27216658 -0.27044452 -0.26391888 -0.26235264 -0.26130571
 -0.25945952 -0.25924234 -0.25744871 -0.2572563  -0.25617354 -0.11437408
 -0.03938464 -0.00619296  0.27483057  0.32579888  0.37829261  0.41148963] [0.43256482 0.64944809 0.80691616 0.82600734 0.93389224 0.95097603
 1.02801636 1.04737154]
   9 ( 0.333  0.000  0.000)   [-5.24428364e+02 -4.50898267e+01 -2.71162483e-01 -2.66072383e-01
 -2.62448616e-01 -2.62242370e-01 -2.59471823e-01 -2.58816163e-01
 -2.58641017e-01 -2.57708170e-01 -2.55597226e-01 -9.23802617e-02
 -1.18959416e-02  2.11930724e-01  2.31508937e-01  3.55067749e-01
  3.67499368e-01  4.12122136e-01] [0.46702574 0.72839851 0.81875885 0.86617319 0.90549769 0.99090864
 1.06225305 1.07004694]
  10 ( 0.333  0.000  0.333)   [-1.04675999e+02 -8.41930736e+00 -2.70672394e-01 -2.68112884e-01
 -2.63071458e-01 -2.61834621e-01 -2.61148718e-01 -2.59261294e-01
 -2.57723962e-01 -2.57265029e-01 -2.56207961e-01 -2.17568828e-01
 -7.55539308e-02 -1.37058871e-02  2.14687393e-01  3.17923176e-01
  3.79741907e-01  4.14516691e-01] [0.4344193  0.60855501 0.7660124  0.82842969 0.95431193 0.98891284
 1.02165015 1.04891526]
  11 ( 0.333  0.000  0.667)   [-1.84596854e+02 -1.57412951e+01 -2.71472596e-01 -2.63820376e-01
 -2.62945139e-01 -2.61803047e-01 -2.60728165e-01 -2.59250308e-01
 -2.58063125e-01 -2.57265453e-01 -2.56205644e-01 -1.44699658e-01
 -4.03961662e-02  6.53910837e-02  2.22415017e-01  3.08221376e-01
  3.71678481e-01  4.07482314e-01  4.31328008e-01] [0.59966354 0.82054979 0.8449892  0.93909914 0.99467506 1.00855106
 1.08840318]
  12 ( 0.333  0.333  0.000)   [-4.33782678e+02 -4.69478639e+01 -2.71599243e-01 -2.69485972e-01
 -2.63802385e-01 -2.59497912e-01 -2.59350026e-01 -2.58765115e-01
 -2.58425400e-01 -2.58220742e-01 -2.56593904e-01 -7.05981688e-02
 -1.04991580e-02  1.49500470e-01  2.03729223e-01  2.62851111e-01
  3.14329971e-01  3.34867198e-01  4.14628490e-01] [0.63229888 0.85313018 0.94704898 0.99634715 1.01089658 1.0454222
 1.08745377]
  13 ( 0.333  0.333  0.333)   [-3.67480474e+02 -4.08999604e+01 -2.71245724e-01 -2.69587950e-01
 -2.62517331e-01 -2.61032670e-01 -2.60047149e-01 -2.59217350e-01
 -2.58194744e-01 -2.57284182e-01 -2.56926680e-01 -2.17489600e-02
 -1.35433902e-02  4.49675181e-02  1.79020574e-01  2.42844725e-01
  3.06867216e-01  3.70305656e-01  3.93225754e-01] [0.54584741 0.85635649 0.89495533 0.93240109 1.02002766 1.035022
 1.08367758]
  14 ( 0.333  0.333  0.667)   [-2.94819584e+02 -2.43989554e+01 -2.71271894e-01 -2.68684621e-01
 -2.61843925e-01 -2.61007316e-01 -2.60536614e-01 -2.58668213e-01
 -2.58275316e-01 -2.57596810e-01 -2.56923413e-01 -1.76026055e-01
 -5.31644104e-03  4.81961556e-02  1.74267076e-01  2.40110660e-01
  3.10913456e-01  3.49867736e-01  3.98603605e-01] [0.62378544 0.85089944 0.89607891 0.95434528 1.02403535 1.0326457
 1.08975207]
  15 ( 0.333  0.667  0.000)   [-2.04678280e+02 -2.23930268e+01 -2.72942819e-01 -2.69138029e-01
 -2.62710609e-01 -2.61940088e-01 -2.60381198e-01 -2.58791729e-01
 -2.58349698e-01 -2.57649032e-01 -2.56264742e-01 -1.10482805e-01
 -5.44127714e-03  1.36855872e-01  2.20558982e-01  2.48039752e-01
  3.81775278e-01  4.21530174e-01] [0.45913491 0.62493004 0.83636129 0.87267384 0.93033284 0.97462824
 1.05126363 1.07093897]
  16 ( 0.333  0.667  0.333)   [-3.24743699e+02 -3.73192537e+01 -2.72039250e-01 -2.68880785e-01
 -2.63197184e-01 -2.61824646e-01 -2.60846487e-01 -2.59402410e-01
 -2.58132795e-01 -2.57265733e-01 -2.56580847e-01 -8.33501698e-02
 -2.63535789e-02  1.43656639e-01  2.20676365e-01  3.14072962e-01
  3.68507600e-01  4.17267321e-01  4.31610947e-01] [0.57073455 0.79050702 0.82824968 0.92663623 0.9859283  1.01495951
 1.07933077]
  17 ( 0.333  0.667  0.667)   [-6.48970297e+02 -7.90976351e+01 -2.71716437e-01 -2.70001145e-01
 -2.63127981e-01 -2.61804247e-01 -2.60481157e-01 -2.58934936e-01
 -2.57902989e-01 -2.57270226e-01 -2.56218631e-01 -1.12017530e-01
 -2.60023289e-02  1.94798374e-02  2.18026481e-01  2.92092236e-01
  3.80365955e-01  3.98012180e-01] [0.4339439  0.52638083 0.78214633 0.8500323  0.9671568  0.98981389
 1.01191292 1.06493536]
  18 ( 0.667  0.000  0.000)   [-3.02467681e+02 -2.66892885e+01 -2.72146816e-01 -2.68913686e-01
 -2.62600988e-01 -2.61206049e-01 -2.60582324e-01 -2.58954508e-01
 -2.58684453e-01 -2.57998046e-01 -2.55947415e-01 -9.12718797e-02
 -8.87420995e-04  1.84671406e-01  2.32397438e-01  3.13392745e-01
  3.69898102e-01  4.11047957e-01] [0.45426855 0.67530406 0.80461505 0.87547381 0.90583711 0.95685317
 1.04441706 1.06991253]
  19 ( 0.667  0.000  0.333)   [-1.50017901e+02 -2.16220891e+01 -2.71432642e-01 -2.68525674e-01
 -2.62959106e-01 -2.61626614e-01 -2.60990663e-01 -2.59403763e-01
 -2.58045743e-01 -2.57270853e-01 -2.56297760e-01 -1.56023865e-01
 -6.72940267e-02  2.70701348e-02  2.71972790e-01  3.17408958e-01
  3.68416223e-01  3.91582956e-01] [0.43267635 0.57541923 0.79044209 0.82822832 0.94031254 0.95432929
 1.02335199 1.03518724]
  20 ( 0.667  0.000  0.667)   [-3.02291912e+02 -4.76035910e+01 -2.71936963e-01 -2.69473725e-01
 -2.63164356e-01 -2.61758381e-01 -2.60798008e-01 -2.58822823e-01
 -2.58595864e-01 -2.57301781e-01 -2.56319156e-01 -2.12403125e-01
 -7.66809817e-02  9.45403263e-04  2.25785393e-01  2.95339026e-01
  3.79576108e-01  4.24743796e-01] [0.43499583 0.49757708 0.75312008 0.87515562 0.95575445 0.98913279
 1.02241717 1.0613802 ]
  21 ( 0.667  0.333  0.000)   [-5.14443710e+02 -4.42218427e+01 -2.73048126e-01 -2.68978261e-01
 -2.62696121e-01 -2.61020208e-01 -2.60034348e-01 -2.59051881e-01
 -2.58551881e-01 -2.58101215e-01 -2.55894393e-01 -1.44170029e-01
 -7.79036055e-02  1.57795890e-01  2.22210128e-01  2.39138497e-01
  3.58815560e-01  3.84716807e-01] [0.43822861 0.69913437 0.80642303 0.88892332 0.92338502 1.00525522
 1.04935608 1.07429984]
  22 ( 0.667  0.333  0.333)   [-1.60092524e+02 -1.39353835e+01 -2.71686826e-01 -2.69510261e-01
 -2.62838402e-01 -2.61594151e-01 -2.60086005e-01 -2.58775794e-01
 -2.57805331e-01 -2.57271801e-01 -2.56331705e-01 -8.35310521e-02
 -3.46886010e-02  1.79516360e-01  2.78865632e-01  3.30844273e-01
  3.80381995e-01  4.10042867e-01] [0.43367425 0.6852623  0.79626374 0.83934516 0.95925579 1.00373
 1.02399267 1.06131868]
  23 ( 0.667  0.333  0.667)   [-1.69759954e+02 -2.38435350e+01 -2.71732971e-01 -2.69568820e-01
 -2.63028684e-01 -2.61604607e-01 -2.60186400e-01 -2.58916365e-01
 -2.57918027e-01 -2.57282461e-01 -2.56669061e-01 -8.69703374e-02
 -3.51706193e-02  5.47468895e-02  2.41484046e-01  3.27903185e-01
  3.66404624e-01  3.91568227e-01  4.31491318e-01] [0.51137345 0.79929309 0.83477152 0.92714843 0.96418315 1.01087469
 1.08344602]
  24 ( 0.667  0.667  0.000)   [-3.19364201e+02 -3.86096395e+01 -2.71664867e-01 -2.68775185e-01
 -2.63460858e-01 -2.59400218e-01 -2.59346330e-01 -2.58931071e-01
 -2.58425357e-01 -2.58197274e-01 -2.56390111e-01 -8.71050864e-02
 -1.79769251e-02  1.74285340e-01  2.03434367e-01  2.79675150e-01
  3.22437464e-01  3.30177149e-01  4.15101449e-01] [0.56057013 0.84243142 0.94919143 0.99281758 1.00276049 1.0337468
 1.08136513]
  25 ( 0.667  0.667  0.333)   [-2.34993889e+02 -1.83692383e+01 -2.71130055e-01 -2.70276617e-01
 -2.62526389e-01 -2.61027825e-01 -2.59805432e-01 -2.59574937e-01
 -2.58260402e-01 -2.57474033e-01 -2.56925686e-01 -1.39663082e-02
 -4.29560684e-03  1.61298090e-01  2.27754164e-01  2.83795396e-01
  3.33480207e-01  3.90342769e-01  4.16890644e-01] [0.78262752 0.89298365 0.91197299 0.95352788 1.02422256 1.03077429
 1.09141168]
  26 ( 0.667  0.667  0.667)   [-2.63700402e+02 -3.01130011e+01 -2.71271998e-01 -2.68654789e-01
 -2.62028495e-01 -2.61021251e-01 -2.60254968e-01 -2.59544943e-01
 -2.58193197e-01 -2.57510288e-01 -2.56930392e-01 -5.50531675e-02
 -1.09845879e-02  1.60344401e-01  2.27179540e-01  2.58892144e-01
  3.20824819e-01  3.60695723e-01  4.03765956e-01] [0.54641237 0.86309906 0.90774674 0.97263966 1.02125955 1.03042143
 1.09205113]
nelec by numeric integration = 36.000000000031335
    CPU time for vxc    872.29 sec, wall time     32.22 sec
Ewald components = 2.23368679724563e-09, -0.129121640870431, 0.0670244764868704
    CPU time for vj and vk 160537.66 sec, wall time  10601.34 sec
Ewald components = 6.77773183084737, -128.779455527716, 5.42224205397643
E1 = (-84.51722483425684+7.337237813205605e-17j)  Ecoul = 58.779845455446974  Exc = -24.375151769269713
cycle= 2 E= -166.692012790971  delta_E= 35.1  |g|= 11.7  |ddm|= 34.8
    CPU time for cycle= 2 161416.64 sec, wall time  10634.11 sec
HOMO = 0.313994192143  LUMO = 0.316441164694
     k-point                  mo_energy
   0 ( 0.000  0.000  0.000)   [-2.99559815 -2.53660537 -2.1999092  -1.91413003 -1.36015784 -1.1585499
 -0.7838745  -0.7402805  -0.55009523 -0.45243036 -0.33612314 -0.17019399
  0.01722522  0.05716085  0.22702105] [0.66817307 0.80243908 1.03467668 1.09801282 1.21400463 1.5307284
 2.03488465 2.3904054  2.72922665 3.78944179 7.73690576]
   1 ( 0.000  0.000  0.333)   [-0.49215658 -0.39480196 -0.37969833 -0.36742371 -0.36295253 -0.36123558
 -0.26801767 -0.04853263 -0.01269917 -0.01017129  0.00313351  0.0043736
  0.04173864  0.07914469  0.0928973   0.14079978  0.28941803] [0.33951337 0.3432002  0.55539693 0.70961607 0.71328214 0.75645631
 0.85357193 0.95369084 0.95536492]
   2 ( 0.000  0.000  0.667)   [-0.49086422 -0.38068854 -0.37936044 -0.36519593 -0.36267788 -0.36007792
 -0.25673294 -0.04605782 -0.01261409 -0.01018908  0.00325993  0.00431302
  0.05144441  0.07897468  0.0949915   0.19682314] [0.33933679 0.34333546 0.55237883 0.65417482 0.71032686 0.71335694
 0.77929453 0.85989225 0.9537938  0.95530027]
   3 ( 0.000  0.333  0.000)   [-0.48060467 -0.37516038 -0.37341338 -0.36869934 -0.36395173 -0.34863021
 -0.23302696 -0.06019569 -0.02840918 -0.00964873 -0.00536154  0.00261623
  0.01256559  0.03873511  0.04722285  0.18517225  0.21308291  0.2986323 ] [0.59238677 0.69008283 0.75266352 0.76638723 0.83615784 0.86903304
 0.96599849 0.99605182]
   4 ( 0.000  0.333  0.333)   [-0.48157698 -0.375169   -0.37348472 -0.36906437 -0.36411781 -0.34878157
 -0.23706152 -0.06841326 -0.0372198  -0.01317902 -0.00457714  0.00308192
  0.01033982  0.0467398   0.06388221  0.17356323  0.22238573  0.28457508] [0.58328623 0.66087207 0.73485996 0.75423265 0.76725921 0.86368766
 0.95919024 0.99402811]
   5 ( 0.000  0.333  0.667)   [-0.48070944 -0.38480109 -0.37486393 -0.36972032 -0.36557713 -0.34902571
 -0.23901666 -0.06936542 -0.03926059 -0.01187155 -0.00192967  0.00265431
  0.00628878  0.05035     0.05663105  0.17095894  0.20660736  0.29422835] [0.48959828 0.60411288 0.6974194  0.73789598 0.75592658 0.86903545
 0.95370012 0.99402742]
   6 ( 0.000  0.667  0.000)   [-0.48128676 -0.39383158 -0.37472334 -0.37280423 -0.36450797 -0.35028287
 -0.2357317  -0.05988434 -0.03069901 -0.00971027 -0.00701024  0.00253127
  0.00916237  0.03355253  0.04557193  0.14459587  0.21179858  0.29947369] [0.40937939 0.5910748  0.69866511 0.75177492 0.80126057 0.85886921
 0.95638976 0.99610715]
   7 ( 0.000  0.667  0.333)   [-0.48255614 -0.41001112 -0.37385254 -0.36997655 -0.36541652 -0.35502347
 -0.25492574 -0.11932625 -0.0654221  -0.02938446 -0.01273119  0.0023356
  0.00384797  0.01110918  0.04583546  0.07398474  0.21271904  0.26671051
  0.29096193] [0.58719694 0.69787251 0.73813562 0.75286633 0.8684751  0.95287246
 0.99349553]
   8 ( 0.000  0.667  0.667)   [-0.48051368 -0.37526388 -0.37331424 -0.36827184 -0.36413222 -0.34784188
 -0.23632356 -0.06673766 -0.03725138 -0.01233158 -0.00443787  0.00336836
  0.01058945  0.0533001   0.06473268  0.17846678  0.22510258  0.29571866] [0.58748387 0.68475196 0.73996267 0.75498403 0.83680783 0.86703582
 0.9642819  0.9946455 ]
   9 ( 0.333  0.000  0.000)   [-0.48933285 -0.41707711 -0.37500693 -0.3724756  -0.36760906 -0.36267831
 -0.30983164 -0.20593773 -0.05863899 -0.02642479 -0.00974195 -0.00395548
  0.00409461  0.01736605  0.04467653  0.04984317  0.20499319  0.24775676
  0.29780897] [0.5923095  0.69515328 0.75194481 0.7814898  0.85892659 0.95580952
 0.99567006]
  10 ( 0.333  0.000  0.333)   [-0.48019475 -0.37618263 -0.37338311 -0.36779511 -0.36565721 -0.34731685
 -0.23706773 -0.0677164  -0.03800701 -0.01255183 -0.00202606  0.00412131
  0.00764581  0.0451513   0.06004581  0.18528345  0.21299078  0.28962628] [0.5751637  0.64026184 0.6986731  0.74760559 0.75484208 0.8674473
 0.95859124 0.99318166]
  11 ( 0.333  0.000  0.667)   [-0.48086493 -0.37792207 -0.37419736 -0.36805091 -0.36570702 -0.3544849
 -0.23783615 -0.06664922 -0.04040169 -0.01374492 -0.00657545  0.00428562
  0.01041348  0.04000334  0.06116391  0.15875647  0.2175974   0.28398428] [0.48138119 0.59493944 0.71064671 0.74049303 0.75074453 0.86417262
 0.95759779 0.99339071]
  12 ( 0.333  0.333  0.000)   [-0.48412142 -0.40526975 -0.37242083 -0.37009966 -0.36902808 -0.33387152
 -0.23056291 -0.12328204 -0.07548209 -0.04228151 -0.02472813 -0.00660921
 -0.00078877  0.00539889  0.0263878   0.07145636  0.19328671  0.21519537
  0.28382265] [0.64683787 0.69482449 0.72220186 0.79826271 0.91019476 0.93076971
 0.98951502]
  13 ( 0.333  0.333  0.333)   [-0.48089259 -0.39139899 -0.37244465 -0.3699842  -0.36927606 -0.32899677
 -0.22690332 -0.08754801 -0.05010275 -0.04173377 -0.0075198   0.00205277
  0.00511763  0.00672819  0.02075681  0.0833237   0.2054913   0.21373554
  0.31399419] [0.65164713 0.69027438 0.7179753  0.74081194 0.90239354 0.92479807
 1.01763341]
  14 ( 0.333  0.333  0.667)   [-0.47564698 -0.37679809 -0.37151243 -0.37000666 -0.36636419 -0.33076106
 -0.23180369 -0.08062269 -0.04585655 -0.03512376  0.00153146  0.0030722
  0.00523546  0.02120925  0.04192533  0.14487195  0.1904934   0.2109577 ] [0.35062022 0.65905845 0.69954446 0.72141343 0.74452982 0.89813963
 0.92590152 1.01261477]
  15 ( 0.333  0.667  0.000)   [-0.48025822 -0.3758807  -0.37443726 -0.37066726 -0.36323371 -0.34851201
 -0.2355805  -0.05841264 -0.03387215 -0.01620374 -0.00847693  0.00333628
  0.00866776  0.03525937  0.04830107  0.15605829  0.21283019  0.29331964] [0.45374023 0.58844014 0.6987028  0.7434787  0.80128769 0.85674573
 0.95107298 0.99133291]
  16 ( 0.333  0.667  0.333)   [-0.48081633 -0.37815054 -0.3755722  -0.37129267 -0.36321744 -0.34833016
 -0.24238624 -0.06808557 -0.04473809 -0.02674649 -0.01123045 -0.00345587
  0.00623107  0.03452116  0.04995061  0.10828828  0.21318377  0.28936523] [0.31644116 0.59448291 0.70772959 0.74110951 0.74866504 0.86075388
 0.9288169  0.97648454]
  17 ( 0.333  0.667  0.667)   [-0.54202186 -0.47265302 -0.38096465 -0.37374638 -0.37013846 -0.36687892
 -0.34966079 -0.23177772 -0.07077493 -0.03738562 -0.02067481 -0.00319333
  0.00255901  0.00762296  0.04092214  0.06842852  0.21063419  0.23802359
  0.28641321] [0.59003582 0.68238702 0.72588983 0.75401025 0.8683586  0.93723853
 0.96083429]
  18 ( 0.667  0.000  0.000)   [-0.48151946 -0.3981395  -0.37467034 -0.37032513 -0.36725535 -0.34936632
 -0.23600986 -0.06149329 -0.03666828 -0.01079016 -0.00999739  0.00362053
  0.00567734  0.02999184  0.04323682  0.10917193  0.21550209  0.29714933] [0.33478147 0.59313259 0.69128119 0.7512397  0.80249679 0.858885
 0.94972517 0.99193935]
  19 ( 0.667  0.000  0.333)   [-0.48029634 -0.37601439 -0.37344783 -0.36782125 -0.36552084 -0.34988353
 -0.23976507 -0.0676009  -0.03869336 -0.01254341 -0.00613933  0.00350207
  0.00985239  0.05093293  0.06443658  0.16693942  0.22102347  0.29318425] [0.53168598 0.60476862 0.69651585 0.74029094 0.75407541 0.86255537
 0.94862377 0.99296739]
  20 ( 0.667  0.000  0.667)   [-0.48052511 -0.37595195 -0.37377907 -0.36760866 -0.36549423 -0.34735532
 -0.24666757 -0.07108977 -0.0410899  -0.02106461 -0.00951662  0.0022173
  0.00698025  0.04285123  0.05424242  0.11790308  0.21725948  0.28819817] [0.33737397 0.596727   0.64506897 0.7356041  0.75190359 0.867636
 0.95321455 0.99256895]
  21 ( 0.667  0.333  0.000)   [-0.48396761 -0.39224969 -0.37465787 -0.37087444 -0.3640202  -0.35203762
 -0.30431688 -0.2039943  -0.05714238 -0.02403029 -0.01194977 -0.00496315
 -0.000647    0.01588716  0.03234042  0.05263961  0.21192502  0.25320842
  0.27504055] [0.59236699 0.69758311 0.74828748 0.80087507 0.84701783 0.94873017
 0.98848116]
  22 ( 0.667  0.333  0.333)   [-0.47997993 -0.37610936 -0.37437408 -0.37013736 -0.36330567 -0.34705436
 -0.2398988  -0.06448667 -0.03676409 -0.01874644 -0.00621865  0.00268054
  0.00606954  0.04632616  0.06087024  0.17852095  0.21447853  0.29095152] [0.51976392 0.6056771  0.70107282 0.74183856 0.75289441 0.86685318
 0.95351031 0.98814213]
  23 ( 0.667  0.333  0.667)   [-0.48055309 -0.37886829 -0.37476735 -0.37066911 -0.36392939 -0.34749175
 -0.23794941 -0.06506598 -0.04037953 -0.0133612  -0.00677397  0.00187186
  0.00905536  0.04273388  0.06480235  0.16120148  0.22119888  0.28774097] [0.51008312 0.59495007 0.71035456 0.73684084 0.75007656 0.86322225
 0.94197435 0.97943008]
  24 ( 0.667  0.667  0.000)   [-4.78610761e-01 -3.94550990e-01 -3.72270835e-01 -3.69797039e-01
 -3.66162837e-01 -3.39576957e-01 -2.27929967e-01 -7.65360049e-02
 -4.12060897e-02 -2.99251045e-02 -6.12740400e-03 -2.20756850e-04
  5.35286261e-03  2.45488112e-02  2.71418276e-02  8.34955459e-02
  1.94664829e-01  2.19055602e-01] [0.35030163 0.64940713 0.69541246 0.7260465  0.79516865 0.90565197
 0.93512887 0.9848984 ]
  25 ( 0.667  0.667  0.333)   [-0.47577117 -0.39798867 -0.37322744 -0.37047625 -0.36583271 -0.32737393
 -0.22719072 -0.08112746 -0.04440917 -0.03513204  0.00176984  0.00442476
  0.00654457  0.02163892  0.04676557  0.14472407  0.20832766  0.21402876] [0.44309788 0.66643302 0.70545103 0.72620115 0.74225925 0.90191697
 0.92650439 1.01751384]
  26 ( 0.667  0.667  0.667)   [-0.48055352 -0.38272367 -0.37174126 -0.36942482 -0.36896769 -0.32948075
 -0.22679739 -0.0825671  -0.04501356 -0.04013228 -0.00134714  0.00492947
  0.00621828  0.02022362  0.04048023  0.13696763  0.20855568  0.21546461] [0.40463512 0.6625966  0.702741   0.71645068 0.74137713 0.89559275
 0.92517306 1.01550734]
nelec by numeric integration = 35.99999999997723
    CPU time for vxc    615.31 sec, wall time     24.23 sec
Ewald components = 2.23368679724563e-09, -0.129121640870431, 0.0670244764868704
    CPU time for vj and vk 181737.61 sec, wall time  11842.96 sec
Ewald components = 6.77773183084737, -128.779455527716, 5.42224205397643
E1 = (-86.51016949863327+7.619933490772197e-17j)  Ecoul = 60.324326943937756  Exc = -379.757400401728
cycle= 3 E= -522.522724599315  delta_E= -356  |g|= 2.17e+03  |ddm|= 30.4
    CPU time for cycle= 3 182357.18 sec, wall time  11867.44 sec
HOMO = 0.29776249128  LUMO = 0.298560936472

WARN: HOMO 0.29776249128 == LUMO 0.298560936472

     k-point                  mo_energy
   0 ( 0.000  0.000  0.000)   [-2.98011772 -2.52494694 -2.19427635 -1.91109677 -1.35941478 -1.15831862
 -0.78103494 -0.73662068 -0.56045978 -0.44869416 -0.32321238 -0.16014253
  0.01450501  0.04953258  0.20984954] [0.68872398 0.78022097 1.00257566 1.07048905 1.2103414  1.52123983
 2.02654937 2.3672236  2.74522029 3.74124021 7.68069936]
   1 ( 0.000  0.000  0.333)   [-0.53755164 -0.47645311 -0.37963165 -0.36945039 -0.36304052 -0.36150289
 -0.27471121 -0.05160948 -0.01314446 -0.01031902  0.00108984  0.00422547
  0.02063718  0.06035256  0.09156964  0.10304037  0.25009792] [0.33922796 0.34310166 0.55496453 0.7025411  0.71319977 0.73313988
 0.85296994 0.95342328 0.95526775]
   2 ( 0.000  0.000  0.667)   [-0.49067513 -0.38078244 -0.37930247 -0.36527826 -0.36261598 -0.36004666
 -0.25699271 -0.04610444 -0.01275447 -0.01032691  0.00312512  0.00417546
  0.05135831  0.07902154  0.09519753  0.19639833] [0.33927122 0.3432667  0.55225351 0.64266722 0.71038137 0.71343444
 0.77690905 0.8590556  0.95370956 0.95521569]
   3 ( 0.000  0.333  0.000)   [-0.48041222 -0.37511422 -0.37334356 -0.36864299 -0.36388122 -0.34855305
 -0.23307929 -0.06006477 -0.02841339 -0.00978115 -0.00549453  0.00248943
  0.01244899  0.03874768  0.04739193  0.18507604  0.21303501] [0.29856094 0.5924903  0.69010913 0.75276132 0.7658225  0.83564942
 0.86874083 0.96580062 0.99597741]
   4 ( 0.000  0.333  0.333)   [-0.48164204 -0.37509724 -0.37347434 -0.36907481 -0.3640512  -0.34892347
 -0.23723205 -0.06847222 -0.03741098 -0.01328695 -0.00476189  0.00294722
  0.01018345  0.04689846  0.06346173  0.17261959  0.2220178   0.28449919] [0.5815491  0.65306234 0.73240727 0.75429694 0.75848985 0.86335902
 0.95860857 0.99395036]
   5 ( 0.000  0.333  0.667)   [-0.48080069 -0.39449689 -0.3748113  -0.36988169 -0.36573287 -0.34940304
 -0.23975216 -0.07117886 -0.04042171 -0.01199735 -0.00270003  0.00250788
  0.00585775  0.04942585  0.05520152  0.16073386  0.20607326  0.29413413] [0.44025476 0.60086691 0.69586395 0.73519253 0.75601739 0.86803768
 0.95293037 0.99394825]
   6 ( 0.000  0.667  0.000)   [-0.48216144 -0.42628061 -0.37471653 -0.37283004 -0.36449065 -0.35061307
 -0.23702818 -0.06037554 -0.03217797 -0.00988769 -0.00856275  0.00232052
  0.00696116  0.03136227  0.04466018  0.1238629   0.21082565] [0.29924995 0.35992411 0.59006584 0.69777621 0.75126433 0.79872928
 0.85832887 0.9557909  0.99599096]
   7 ( 0.000  0.667  0.333)   [-6.47171921e-01 -4.76672850e-01 -3.73988617e-01 -3.70318462e-01
 -3.65731738e-01 -3.57775461e-01 -3.06559380e-01 -1.98835469e-01
 -7.22698113e-02 -3.28331760e-02 -1.47988132e-02  3.39419517e-04
  2.75855060e-03  8.39858270e-03  3.19368115e-02  7.00312131e-02
  2.10851499e-01  2.50988243e-01  2.90634437e-01] [0.56234383 0.69235517 0.72911559 0.74999679 0.86403905 0.95207907
 0.99295399]
   8 ( 0.000  0.667  0.667)   [-0.4803195  -0.375186   -0.37324369 -0.36820322 -0.36406126 -0.34775314
 -0.23638341 -0.06664635 -0.03725907 -0.01244768 -0.00457742  0.00323249
  0.01046706  0.05346829  0.06475792  0.17835771  0.22503011  0.29564255] [0.58754191 0.68465276 0.73994704 0.75508559 0.835432   0.86688549
 0.96407667 0.9945677 ]
   9 ( 0.333  0.000  0.000)   [-0.73140308 -0.49093394 -0.45437435 -0.37503024 -0.37206503 -0.36705146
 -0.35974326 -0.22473705 -0.06074431 -0.02870266 -0.00988082 -0.0048652
  0.003947    0.0155237   0.04315984  0.04854297  0.19826988  0.23984969
  0.29771097] [0.59142459 0.68434462 0.73942446 0.75222603 0.85872806 0.95544798
 0.99558873]
  10 ( 0.333  0.000  0.333)   [-0.4800088  -0.37612417 -0.37335615 -0.36776876 -0.36560182 -0.34745
 -0.23737809 -0.06819866 -0.038997   -0.01270533 -0.00229876  0.00396345
  0.00745446  0.04385118  0.05913617  0.18226178  0.21289251  0.28953384] [0.56223719 0.62287742 0.69540047 0.74575581 0.75417476 0.86702581
 0.95734064 0.99308706]
  11 ( 0.333  0.000  0.667)   [-0.48110404 -0.38095116 -0.37448397 -0.3681574  -0.36569329 -0.35839006
 -0.23859593 -0.06698462 -0.04291798 -0.01419674 -0.00711422  0.00398301
  0.01009765  0.03572258  0.05943634  0.15002365  0.21599028  0.28385986] [0.43154174 0.59003126 0.70916538 0.73915989 0.74968294 0.86391223
 0.95712128 0.99322922]
  12 ( 0.333  0.333  0.000)   [-0.65815826 -0.45768283 -0.3724579  -0.37008664 -0.3691153  -0.33786818
 -0.2586594  -0.23455633 -0.084384   -0.05283318 -0.02598704 -0.00879614
 -0.00224958  0.0049356   0.0239611   0.06958069  0.18432101  0.21457187
  0.25408224] [0.62585104 0.67095651 0.71449242 0.79553952 0.90626816 0.92485796
 0.98940752]
  13 ( 0.333  0.333  0.333)   [-0.58646088 -0.45114631 -0.3725826  -0.36996175 -0.36939937 -0.33039156
 -0.2271317  -0.13288707 -0.11685496 -0.06217262 -0.03183171 -0.00312015
  0.00486581  0.00617973  0.02024584  0.05971657  0.20467922  0.21296677
  0.27677099] [0.58200851 0.68068738 0.7165234  0.73683566 0.90155317 0.91939583
 1.01695676]
  14 ( 0.333  0.333  0.667)   [-0.47644738 -0.38528817 -0.3717845  -0.36997926 -0.36674997 -0.33431595
 -0.23879717 -0.08060031 -0.04974216 -0.03815845 -0.00219567  0.0019651
  0.00481214  0.01976661  0.02287357  0.10860847  0.16322843  0.21037241
  0.29776249] [0.64743482 0.69583877 0.72006063 0.74280939 0.89296873 0.9253223
 1.00724011]
  15 ( 0.333  0.667  0.000)   [-0.480097   -0.37597377 -0.37506139 -0.37097277 -0.36323768 -0.34860966
 -0.23743479 -0.05969584 -0.04368321 -0.02073562 -0.00909741  0.00291961
  0.00667893  0.03343262  0.04746679  0.14096807  0.21034272  0.29052556] [0.39949592 0.58609999 0.69728389 0.73965193 0.79902084 0.85563921
 0.94816962 0.99096896]
  16 ( 0.333  0.667  0.333)   [-0.48532162 -0.40396583 -0.37566214 -0.37181419 -0.36315816 -0.35072114
 -0.25045955 -0.14736223 -0.06512574 -0.04459725 -0.0148427  -0.00723363
  0.00470114  0.02214991  0.03933199  0.0887463   0.20900935  0.27759527
  0.29058369] [0.5937299  0.70448839 0.73259652 0.74419107 0.84410628 0.89090277
 0.97201856]
  17 ( 0.333  0.667  0.667)   [-0.97085571 -0.54603371 -0.46869196 -0.37383011 -0.37185717 -0.36902001
 -0.35312041 -0.26972598 -0.16508963 -0.05517888 -0.02723086 -0.00625965
  0.00221377  0.00701337  0.03128477  0.06626332  0.19345317  0.23158387
  0.27711876] [0.54764345 0.62392483 0.71619137 0.75409202 0.85745672 0.8920587
 0.95637436]
  18 ( 0.667  0.000  0.000)   [-4.92347401e-01 -4.58124338e-01 -3.74696800e-01 -3.70711449e-01
 -3.67228278e-01 -3.49666914e-01 -2.38906765e-01 -7.19672207e-02
 -4.95560809e-02 -1.85942730e-02 -1.16475400e-02  2.68335568e-04
  3.00145941e-03  2.53842264e-02  3.93998897e-02  7.75127057e-02
  2.13359684e-01  2.92918106e-01] [0.30042842 0.59312374 0.68167579 0.74999814 0.80131419 0.85775902
 0.93905164 0.98900753]
  19 ( 0.667  0.000  0.333)   [-0.48012027 -0.37602412 -0.37356396 -0.36780314 -0.36545616 -0.35134181
 -0.24172885 -0.06934791 -0.03972169 -0.01267644 -0.00653375  0.00268967
  0.00928415  0.05037399  0.0634853   0.16196866  0.21812154  0.29308105] [0.48914744 0.59991866 0.69119143 0.73784111 0.75410199 0.86143745
 0.94553618 0.99277622]
  20 ( 0.667  0.000  0.667)   [-4.80700032e-01 -3.76136803e-01 -3.75368248e-01 -3.67589330e-01
 -3.65485972e-01 -3.47690902e-01 -2.63432418e-01 -1.24137360e-01
 -4.97683714e-02 -4.08721720e-02 -1.13390479e-02  3.83014162e-04
  6.50624601e-03  2.82630402e-02  4.28021322e-02  8.89398744e-02
  2.16490345e-01  2.87465083e-01] [0.30159504 0.5377535  0.60705014 0.73327255 0.75098815 0.86545524
 0.95104516 0.9924022 ]
  21 ( 0.667  0.333  0.000)   [-0.5856379  -0.46798754 -0.437931   -0.37422618 -0.3705122  -0.36433686
 -0.34617637 -0.27146629 -0.06060234 -0.05532144 -0.02425287 -0.00840699
 -0.00249386  0.01246027  0.02413024  0.04979769  0.19131569  0.24237465
  0.25097298] [0.59175591 0.69048619 0.74168278 0.79463596 0.82460683 0.93898003
 0.98351285]
  22 ( 0.667  0.333  0.333)   [-0.47991103 -0.37627962 -0.37445801 -0.37016296 -0.36324082 -0.346987
 -0.24145024 -0.06478433 -0.03752276 -0.02470818 -0.00741776  0.00240475
  0.00579594  0.04642393  0.05969466  0.17235676  0.21399814  0.290808  ] [0.48276127 0.60038203 0.70072933 0.73993977 0.75272427 0.86590027
 0.9525839  0.98756042]
  23 ( 0.667  0.333  0.667)   [-0.48080158 -0.38159135 -0.37479893 -0.37078186 -0.36409053 -0.34757863
 -0.23842965 -0.0652107  -0.04403861 -0.01418261 -0.00789964  0.00070577
  0.00857926  0.04111476  0.06301959  0.15314797  0.21976128  0.28759287] [0.46552974 0.59064519 0.70734229 0.73294385 0.74963926 0.86268516
 0.93561586 0.97740762]
  24 ( 0.667  0.667  0.000)   [-0.50277251 -0.44954396 -0.37228866 -0.36976795 -0.36617546 -0.34592311
 -0.22806208 -0.08261534 -0.05598225 -0.04096027 -0.01882704 -0.00656502
 -0.00056942  0.00490919  0.02636014  0.07179467  0.19442803  0.21866121] [0.30236768 0.6446446  0.6782971  0.72126204 0.79077782 0.89954496
 0.93448881 0.98095024]
  25 ( 0.667  0.667  0.333)   [-0.47599252 -0.42725807 -0.37317013 -0.37041172 -0.36576148 -0.32739503
 -0.22744833 -0.08121654 -0.04471868 -0.03628269  0.0015829   0.00426367
  0.00638445  0.02148069  0.03805578  0.12996399  0.20810239  0.21395363] [0.39203637 0.6662161  0.70551089 0.72420316 0.74004637 0.90139754
 0.92602589 1.01704937]
  26 ( 0.667  0.667  0.667)   [-0.4915595  -0.40176022 -0.37192526 -0.36953997 -0.36905773 -0.3311537
 -0.22703795 -0.08587889 -0.05300961 -0.0431031  -0.00462129  0.00469129
  0.00592665  0.01895684  0.02319199  0.11667887  0.20824717  0.2146912 ] [0.34982218 0.65636186 0.69845577 0.71005585 0.73900965 0.89016068
 0.92408833 1.01344511]
nelec by numeric integration = 35.99999999998141
    CPU time for vxc    649.06 sec, wall time     24.49 sec
Ewald components = 2.23368679724563e-09, -0.129121640870431, 0.0670244764868704
    CPU time for vj and vk 189323.10 sec, wall time  12304.99 sec
Ewald components = 6.77773183084737, -128.779455527716, 5.42224205397643
E1 = (-86.3578244785468+7.658482901349459e-17j)  Ecoul = 60.295835443357696  Exc = -131.99438487362778
cycle= 4 E= -274.635855551709  delta_E=  248  |g|= 1.02e+03  |ddm|= 8.07
    CPU time for cycle= 4 189975.49 sec, wall time  12329.59 sec
HOMO = 0.299292773817  LUMO = 0.300007265238

WARN: HOMO 0.299292773817 == LUMO 0.300007265238

     k-point                  mo_energy
   0 ( 0.000  0.000  0.000)   [-2.9808565  -2.52512392 -2.1924     -1.91169095 -1.35913994 -1.15840896
 -0.78084012 -0.73595541 -0.5575479  -0.44848838 -0.3226314  -0.16010216
  0.01527628  0.04944752  0.21022724] [0.68941021 0.78025275 1.00262183 1.07083397 1.21343242 1.52128923
 2.02815    2.36933375 2.74675193 3.7432095  7.68757598]
   1 ( 0.000  0.000  0.333)   [-0.53866242 -0.47688991 -0.37977053 -0.36918188 -0.36267435 -0.36162473
 -0.26406521 -0.04217461 -0.01289268 -0.01006506  0.00133819  0.00448242
  0.02745754  0.06132692  0.09213182  0.12666264  0.26586291] [0.33927677 0.34316021 0.55603142 0.70331738 0.71306032 0.7399312
 0.86680958 0.95357145 0.95541386]
   2 ( 0.000  0.000  0.667)   [-0.49100091 -0.3809239  -0.37944327 -0.36515307 -0.3626546  -0.36014249
 -0.25241793 -0.04405443 -0.01249803 -0.0100748   0.0033618   0.00443155
  0.0545927   0.07864944  0.09480207  0.19804159] [0.33932044 0.34332316 0.55244337 0.64837061 0.71023138 0.71328602
 0.77770992 0.86237975 0.95385479 0.95536153]
   3 ( 0.000  0.333  0.000)   [-0.48078503 -0.37525012 -0.3734541  -0.36875721 -0.36400646 -0.34869962
 -0.2324137  -0.06029215 -0.02812634 -0.00953852 -0.00524001  0.00272347
  0.01270473  0.03901227  0.0470657   0.18522865  0.21316633  0.29860006] [0.59238463 0.68999832 0.75257527 0.76617825 0.83579858 0.86908559
 0.96608889 0.99609295]
   4 ( 0.000  0.333  0.333)   [-0.48200256 -0.37522967 -0.37355181 -0.36917226 -0.36417607 -0.34904846
 -0.2349592  -0.06858673 -0.03648874 -0.01309143 -0.00451168  0.00319397
  0.01043439  0.04659005  0.06526444  0.17273134  0.22247507  0.28455914] [0.58166376 0.65392196 0.73322673 0.75410277 0.75888119 0.8641198
 0.95947294 0.99407213]
   5 ( 0.000  0.333  0.667)   [-0.4811582  -0.39474009 -0.37492972 -0.36995037 -0.36585799 -0.34953038
 -0.23747164 -0.07133755 -0.03953584 -0.01178285 -0.00245291  0.00275451
  0.00609908  0.04958525  0.05584773  0.16128576  0.20653153  0.29419649] [0.44083269 0.60098461 0.69614156 0.73617638 0.75582179 0.86899178
 0.95356064 0.99407076]
   6 ( 0.000  0.667  0.000)   [-0.48252489 -0.4267534  -0.37482611 -0.37292514 -0.36461179 -0.35073372
 -0.23478033 -0.06055176 -0.03116221 -0.00964884 -0.00833061  0.00254961
  0.00718916  0.03201432  0.04434464  0.12507957  0.21150529  0.29929277] [0.36026027 0.59021118 0.69774732 0.75107569 0.79930342 0.85981627
 0.95687658 0.99610656]
   7 ( 0.000  0.667  0.333)   [-0.65021568 -0.47681702 -0.37394186 -0.37040252 -0.36575564 -0.35765222
 -0.30627424 -0.18091113 -0.07162128 -0.02720835 -0.01463193  0.00072034
  0.00336799  0.00925728  0.03204799  0.08338859  0.21461816  0.25195431
  0.29073925] [0.56356414 0.69792245 0.7323475  0.75289411 0.87042397 0.9573829
 0.99307677]
   8 ( 0.000  0.667  0.667)   [-0.48070002 -0.37532488 -0.3733721  -0.36832643 -0.36418697 -0.34792067
 -0.23635512 -0.06689381 -0.03726682 -0.01223664 -0.00433521  0.00348287
  0.0106886   0.05313631  0.06466854  0.17840479  0.22503605  0.29570503] [0.58736189 0.68445809 0.73983783 0.75489039 0.835388   0.8669664
 0.9641542  0.99469026]
   9 ( 0.333  0.000  0.000)   [-0.73448463 -0.48939255 -0.45482407 -0.37516125 -0.37183698 -0.36698923
 -0.35929323 -0.18464131 -0.05934633 -0.01810122 -0.00960155 -0.00366154
  0.00420319  0.01955671  0.04588764  0.072964    0.21000865  0.24281551
  0.29777901] [0.59707855 0.68991969 0.74769453 0.75242721 0.87997455 0.97675278
 0.9957074 ]
  10 ( 0.333  0.000  0.333)   [-0.48038985 -0.37626135 -0.37348423 -0.36789584 -0.36572832 -0.34761804
 -0.23735146 -0.06843838 -0.03905935 -0.012507   -0.00205698  0.00421081
  0.00767462  0.04358525  0.05900466  0.18228101  0.21288601  0.28959839] [0.56196946 0.62260964 0.69514222 0.74568084 0.75398071 0.86705278
 0.95741596 0.99320853]
  11 ( 0.333  0.000  0.667)   [-0.48148618 -0.38113713 -0.37460395 -0.36828201 -0.36581869 -0.35856691
 -0.23793831 -0.06721181 -0.04268145 -0.01403067 -0.00686978  0.00422674
  0.01032004  0.03550046  0.05972858  0.1500453   0.21613638  0.28392389] [0.43125089 0.58995514 0.70895596 0.73937305 0.74957429 0.86417374
 0.95740523 0.99334994]
  12 ( 0.333  0.333  0.000)   [-0.66092869 -0.45613763 -0.37112592 -0.36910067 -0.36593794 -0.32433502
 -0.25936323 -0.19843444 -0.07971973 -0.0481512  -0.02031643 -0.00839182
 -0.00195291  0.0052574   0.02955741  0.07803999  0.18709885  0.21529725
  0.25590326] [0.64024853 0.67421353 0.72403162 0.80310674 0.90716199 0.92666375
 1.03033334]
  13 ( 0.333  0.333  0.333)   [-0.58786901 -0.45163197 -0.37256864 -0.37006771 -0.36934151 -0.33058114
 -0.21512467 -0.13272983 -0.11659055 -0.06157078 -0.02882916 -0.00292148
  0.00511621  0.00643577  0.02156969  0.06721954  0.20477494  0.21357321
  0.27675759] [0.58187492 0.68121319 0.71866921 0.74156381 0.90166537 0.92239631
 1.02430506]
  14 ( 0.333  0.333  0.667)   [-0.47681371 -0.38439601 -0.37134967 -0.36893441 -0.36684381 -0.33431864
 -0.22753411 -0.08022618 -0.04943191 -0.03739758 -0.00204363  0.00229558
  0.00504804  0.02110904  0.02323728  0.11069142  0.16508582  0.21041733
  0.29742777] [0.65472113 0.70356982 0.72179117 0.75811112 0.89600287 0.92772985
 1.00707338]
  15 ( 0.333  0.667  0.000)   [-0.47507294 -0.37481237 -0.37170685 -0.36519329 -0.35588301 -0.34391069
 -0.18825075 -0.05784193 -0.04278117 -0.02051715 -0.00853585  0.00387238
  0.00835039  0.03459895  0.08271256  0.15375392  0.21381762  0.29163256] [0.41517583 0.58868619 0.72292395 0.75681079 0.81569131 0.87675143
 0.9767699  0.99497105]
  16 ( 0.333  0.667  0.333)   [-0.47865641 -0.39907665 -0.37573429 -0.36886418 -0.35322376 -0.25083032
 -0.19396795 -0.12205564 -0.06187547 -0.03141043 -0.01198392 -0.00463725
  0.00575502  0.05020196  0.06902135  0.10203547  0.21895675  0.29015404] [0.30218061 0.59771884 0.71626896 0.76589085 0.83770982 0.88663984
 0.93593135 1.01948835]
  17 ( 0.333  0.667  0.667)   [-0.94187447 -0.53830069 -0.46395317 -0.37270927 -0.37035273 -0.36406709
 -0.29330143 -0.22611641 -0.118373   -0.04901874 -0.02501479 -0.0022067
  0.00469356  0.01238163  0.04586637  0.1113303   0.20208452  0.23832936
  0.27882986] [0.56307839 0.64428932 0.71949826 0.78619964 0.86596604 0.92251314
 0.99391011]
  18 ( 0.667  0.000  0.000)   [-0.49177843 -0.45492232 -0.37345084 -0.36987379 -0.36660036 -0.34856679
 -0.21116924 -0.06940065 -0.04724719 -0.01737518 -0.01112469  0.0016717
  0.00377301  0.02782946  0.04209258  0.08394405  0.21555598  0.296493  ] [0.32536307 0.5942076  0.69735581 0.75045536 0.85651025 0.86869199
 0.96865401 0.99792984]
  19 ( 0.667  0.000  0.333)   [-0.48032254 -0.37469166 -0.37076555 -0.3674192  -0.36282198 -0.34924282
 -0.20353627 -0.06855373 -0.03947676 -0.0121734  -0.00485574  0.00317996
  0.00996829  0.05589756  0.06674342  0.17062282  0.23153945  0.29766632] [0.50229638 0.6020985  0.70482828 0.75384728 0.79852072 0.86746774
 0.97465428 0.99591808]
  20 ( 0.667  0.000  0.667)   [-0.48063095 -0.3760717  -0.37464183 -0.36710711 -0.36556413 -0.34628067
 -0.24720479 -0.12457539 -0.0478587  -0.03660923 -0.01087078  0.00066308
  0.00689048  0.02933831  0.04613328  0.0968783   0.2210307   0.28838944] [0.30594909 0.53977878 0.61002224 0.74094199 0.76018361 0.87382045
 0.96006995 0.99301035]
  21 ( 0.667  0.333  0.000)   [-0.58676994 -0.46846208 -0.4387413  -0.3742271  -0.37054672 -0.36444697
 -0.34630185 -0.26140136 -0.06022519 -0.05531415 -0.0209374  -0.00812417
 -0.00212617  0.01316633  0.0246733   0.0566473   0.19184315  0.24415075
  0.25360199] [0.59405442 0.69121323 0.74160258 0.79540445 0.83440632 0.94362575
 0.98483747]
  22 ( 0.667  0.333  0.333)   [-0.47650569 -0.3747703  -0.37165823 -0.36629214 -0.35957266 -0.34472048
 -0.2044694  -0.06362591 -0.03193762 -0.02420703 -0.0065365   0.00315298
  0.00620935  0.04987436  0.07588474  0.17609479  0.21719604  0.2916775 ] [0.49299612 0.62150359 0.71651968 0.75911157 0.81600924 0.90310189
 0.96175022 0.9913024 ]
  23 ( 0.667  0.333  0.667)   [-0.47538304 -0.37475952 -0.3712782  -0.36507468 -0.34998196 -0.32949303
 -0.167884   -0.06261922 -0.04224247 -0.01213374 -0.00653847  0.00116561
  0.0096547   0.05498959  0.07440461  0.16180196  0.23960895] [0.30000727 0.49557569 0.59502249 0.71539208 0.76181436 0.78782883
 0.8739491  0.96751104 0.9955416 ]
  24 ( 0.667  0.667  0.000)   [-4.98633987e-01 -4.46630103e-01 -3.71524387e-01 -3.69684600e-01
 -3.65883416e-01 -3.45147540e-01 -1.92505215e-01 -7.93883852e-02
 -5.59366341e-02 -4.05704225e-02 -1.88316207e-02 -5.80860385e-03
  2.43544650e-04  5.19504096e-03  3.21050606e-02  7.21992612e-02
  2.04153023e-01  2.36087617e-01] [0.35142373 0.64611814 0.68231033 0.72663399 0.80970522 0.91769289
 0.94565452 1.05165655]
  25 ( 0.667  0.667  0.333)   [-0.47615539 -0.42763024 -0.37294131 -0.36801803 -0.36538633 -0.32742338
 -0.20261815 -0.07941957 -0.04429341 -0.03621343  0.00182361  0.00486247
  0.00669014  0.0244562   0.03878226  0.13091691  0.21329623  0.22430365] [0.40740928 0.67216902 0.71652153 0.72847081 0.81676762 0.91002985
 0.95835356 1.02962091]
  26 ( 0.667  0.667  0.667)   [-0.49075989 -0.40199399 -0.37139556 -0.36931585 -0.3552042  -0.32702022
 -0.19560312 -0.0806744  -0.05067489 -0.03695624 -0.0010654   0.00503492
  0.00630634  0.02187322  0.02416719  0.11637535  0.20854066  0.21835138] [0.34955699 0.6648059  0.70982263 0.72109551 0.75377788 0.89160028
 0.92423206 1.03341575]
nelec by numeric integration = 35.9999999999763
    CPU time for vxc    611.08 sec, wall time     24.14 sec
Ewald components = 2.23368679724563e-09, -0.129121640870431, 0.0670244764868704
    CPU time for vj and vk 181295.29 sec, wall time  12115.66 sec
Ewald components = 6.77773183084737, -128.779455527716, 5.42224205397643
E1 = (-86.34893943655875+7.786980936607e-17j)  Ecoul = 60.23550081387888  Exc = -25.22635566702585
cycle= 5 E= -167.919275932598  delta_E=  107  |g|= 10.4  |ddm|=    6
    CPU time for cycle= 5 181909.14 sec, wall time  12139.91 sec
HOMO = 0.392478488287  LUMO = 0.399148418061
     k-point                  mo_energy
   0 ( 0.000  0.000  0.000)   [-2.64795678 -2.04417214 -1.77681246 -1.6483665  -1.27505984 -1.1851129
 -0.8459923  -0.64094603 -0.55525798 -0.37650378 -0.20133812 -0.14285852
  0.023246    0.19116199  0.2623127 ] [0.55821178 0.66091406 0.86256909 0.91539206 1.05492075 1.2522572
 1.72865414 2.06547549 2.7695563  3.25015896 4.58432461]
   1 ( 0.000  0.000  0.333)   [-0.4119038  -0.33112026 -0.27946629 -0.27756027 -0.27207318 -0.27037418
 -0.21915051 -0.20814178 -0.20482602 -0.19464266 -0.19269573 -0.18280776
  0.07878057  0.23715722  0.29201365  0.29554685  0.37979256] [0.40232484 0.4067314  0.7350919  0.77636949 0.81984889 0.82157817
 0.85899316 0.86459556 0.90136091]
   2 ( 0.000  0.000  0.667)   [-0.32588181 -0.2782248  -0.2774387  -0.27688878 -0.2715889  -0.2697606
 -0.212678   -0.20807698 -0.20475439 -0.19464044 -0.19262232 -0.17730049
  0.12143103  0.2858295   0.292235    0.29547697] [0.39914842 0.40733528 0.63072721 0.73664673 0.80587287 0.82102178
 0.8216337  0.86238865 0.86444929 0.93406603]
   3 ( 0.000  0.333  0.000)   [-0.31617617 -0.28964043 -0.27521375 -0.27393818 -0.27117008 -0.25920658
 -0.20816397 -0.20460504 -0.20125029 -0.19699025 -0.1868378  -0.11188665
  0.08714819  0.13024871  0.2059964   0.218089    0.31569892  0.35376016] [0.71584551 0.76235598 0.79493942 0.86132979 0.87576892 0.95103923
 0.96194505 0.97610838]
   4 ( 0.000  0.333  0.333)   [-0.31410394 -0.29067626 -0.27549636 -0.27391643 -0.27121977 -0.26136932
 -0.20698905 -0.20477679 -0.20040567 -0.19709047 -0.18114441 -0.13343056
  0.08866178  0.13086911  0.22431358  0.23006295  0.30976683  0.33554173] [0.65517417 0.74885904 0.79114576 0.84977734 0.88661877 0.901552
 0.94054557 0.99087636]
   5 ( 0.000  0.333  0.667)   [-0.3161539  -0.29806507 -0.28335747 -0.27457318 -0.27143539 -0.26134141
 -0.2064962  -0.20477228 -0.20159867 -0.19711614 -0.18346121 -0.13533171
  0.0624152   0.13702058  0.21241835  0.22554032  0.30702617  0.34200448] [0.55863535 0.70641841 0.76024072 0.87979159 0.88474204 0.89919902
 0.94247344 0.96533253]
   6 ( 0.000  0.667  0.000)   [-0.33547836 -0.30574382 -0.28890212 -0.27409208 -0.27180523 -0.263195
 -0.20849411 -0.20461582 -0.20156665 -0.19702148 -0.18960723 -0.11299597
  0.0419474   0.1284323   0.19786195  0.21881903  0.3069307   0.35218041] [0.48645673 0.7449319  0.79110076 0.83906867 0.86078967 0.93465347
 0.96043261 0.97111936]
   7 ( 0.000  0.667  0.333)   [-0.50145268 -0.31757283 -0.28652498 -0.27531171 -0.2712419  -0.26814308
 -0.21216139 -0.20506191 -0.20421989 -0.19787485 -0.19602313 -0.15406022
 -0.06142964  0.12119069  0.19674589  0.22504682  0.27904561  0.32004924
  0.36949937] [0.69034048 0.72444252 0.87020024 0.882384   0.91186399 0.92951777
 0.97017021]
   8 ( 0.000  0.667  0.667)   [-0.31435662 -0.28916937 -0.27532306 -0.27399305 -0.27118944 -0.26098107
 -0.20692445 -0.20476371 -0.20034118 -0.19706232 -0.18086567 -0.13296566
  0.0952863   0.1319857   0.22678957  0.23128749  0.31054836  0.34242079] [0.68297513 0.75112142 0.81887478 0.86660388 0.88655768 0.90721273
 0.94026103 0.99171544]
   9 ( 0.333  0.000  0.000)   [-0.6116924  -0.33832338 -0.28110383 -0.27481349 -0.27435582 -0.27243938
 -0.22666328 -0.2073247  -0.2033088  -0.19968289 -0.19634664 -0.12880908
 -0.11448321  0.12577682  0.17599629  0.21836358  0.24769664  0.35373271
  0.36194974] [0.75028502 0.77140631 0.81957637 0.8609075  0.92194463 0.96131866
 0.98167021]
  10 ( 0.333  0.000  0.333)   [-0.31531429 -0.28861877 -0.27526789 -0.2743126  -0.27204598 -0.26142095
 -0.20650487 -0.20373177 -0.20141275 -0.19656881 -0.18324758 -0.13282506
  0.07943386  0.14008443  0.21401917  0.22508405  0.31571179  0.34016446] [0.64053372 0.70955474 0.76240099 0.88005985 0.885381   0.90465791
 0.93959783 0.96557035]
  11 ( 0.333  0.000  0.667)   [-0.31677257 -0.29387555 -0.27660133 -0.27441831 -0.27213639 -0.26231212
 -0.20794778 -0.20359349 -0.20041933 -0.19654527 -0.18379481 -0.13782575
  0.06286206  0.12998513  0.22220146  0.22477882  0.30298602  0.33273211] [0.53730772 0.73350154 0.76116902 0.84412023 0.88453103 0.90130769
 0.93410819 0.98578419]
  12 ( 0.333  0.333  0.000)   [-0.50589939 -0.30002626 -0.28633794 -0.27488143 -0.27082039 -0.25341991
 -0.20627898 -0.20402916 -0.20016715 -0.19927009 -0.16625029 -0.15058152
 -0.05703353  0.10804475  0.12818958  0.18412229  0.22460163  0.24121476
  0.39247849] [0.74719436 0.80579923 0.85837381 0.92178451 0.92785085 0.95008586
 0.97473098]
  13 ( 0.333  0.333  0.333)   [-0.43716973 -0.30360716 -0.286281   -0.27576896 -0.27349296 -0.25754182
 -0.20455263 -0.20345334 -0.19976573 -0.19883594 -0.15075149 -0.11597027
 -0.04995204  0.09251663  0.13135191  0.19445687  0.24019212  0.27260533
  0.39146745] [0.70968797 0.78799722 0.82149834 0.85522583 0.92826714 0.95264398
 0.97885619]
  14 ( 0.333  0.333  0.667)   [-0.30677634 -0.29592852 -0.28160907 -0.27523082 -0.27169977 -0.26212894
 -0.20636607 -0.20421325 -0.20194808 -0.19943066 -0.15698457 -0.10080453
  0.00677726  0.09017983  0.12081141  0.21661449  0.2392453   0.29205564] [0.45083064 0.74711194 0.78733722 0.83224052 0.91083474 0.92704758
 0.96611244 0.98278045]
  15 ( 0.333  0.667  0.000)   [-0.30504348 -0.28887328 -0.27626002 -0.27019264 -0.26461569 -0.25255859
 -0.2258922  -0.20666769 -0.20443643 -0.19697194 -0.18862209 -0.10312289
  0.05075351  0.13037252  0.20284613  0.21634634  0.31030897  0.36634754] [0.52224457 0.7460238  0.79553595 0.85568673 0.85956024 0.93608269
 0.96004135 0.99672286]
  16 ( 0.333  0.667  0.333)   [-0.35031275 -0.28879449 -0.28067686 -0.27331369 -0.26773858 -0.24475137
 -0.22365198 -0.20481063 -0.2033697  -0.19763668 -0.17998462 -0.10891388
  0.02970457  0.13270749  0.22128133  0.22709444  0.3027646   0.33787994] [0.40639545 0.74622895 0.79837645 0.81302153 0.85097671 0.90497727
 0.97122527 1.00786401]
  17 ( 0.333  0.667  0.667)   [-0.73118358 -0.38675308 -0.28360225 -0.27983293 -0.27562787 -0.25911908
 -0.23555408 -0.2160766  -0.20526297 -0.20339443 -0.19604485 -0.15593676
 -0.09792774  0.1030701   0.15582847  0.20600642  0.25123763  0.27312766
  0.3652879 ] [0.60157066 0.74738626 0.82339702 0.87707668 0.91952632 0.94804825
 0.97585042]
  18 ( 0.667  0.000  0.000)   [-0.36856363 -0.3046249  -0.28732879 -0.27460103 -0.27205335 -0.25936411
 -0.21148244 -0.20363762 -0.20184546 -0.19686094 -0.19117166 -0.10917974
  0.01730777  0.1306416   0.19961724  0.22022562  0.30503919  0.34917777] [0.43721243 0.74665528 0.79396219 0.84861434 0.86228544 0.91237949
 0.95919741 1.0000963 ]
  19 ( 0.667  0.000  0.333)   [-0.30506924 -0.28945981 -0.27489605 -0.27225587 -0.26936611 -0.25755839
 -0.20901895 -0.20389995 -0.20203424 -0.19693643 -0.1803659  -0.13404736
  0.08273253  0.13022133  0.22624201  0.22945264  0.31081668  0.34511288] [0.57782504 0.74782793 0.78390937 0.8510656  0.88715774 0.91423466
 0.94128618 0.97918366]
  20 ( 0.667  0.000  0.667)   [-0.31825336 -0.28883756 -0.27489157 -0.27414575 -0.27200999 -0.26164734
 -0.22893154 -0.20621449 -0.20161413 -0.19998402 -0.19035679 -0.13616723
  0.00572488  0.12950701  0.17971003  0.225451    0.30417428  0.33657048] [0.44701861 0.65358417 0.72031603 0.85025866 0.88338375 0.89822664
 0.93827809 0.9714504 ]
  21 ( 0.667  0.333  0.000)   [-0.45839476 -0.33786118 -0.29126659 -0.27591383 -0.2727389  -0.27012981
 -0.2319544  -0.20972322 -0.20555207 -0.20218678 -0.1976837  -0.16193104
 -0.11076299  0.12231981  0.16805893  0.18714487  0.25310267  0.27444326
  0.35903831] [0.73327602 0.76498973 0.83156311 0.856944   0.9369077  0.944696
 0.96878714]
  22 ( 0.667  0.333  0.333)   [-0.30381038 -0.28796849 -0.27658396 -0.27039914 -0.26748404 -0.25920449
 -0.21674221 -0.20584465 -0.20358051 -0.19609205 -0.18116965 -0.13201458
  0.07230552  0.13987117  0.21641345  0.23067361  0.31670924  0.34052385] [0.58986653 0.72095584 0.77295697 0.8810134  0.89738463 0.91338947
 0.95056414 1.00820813]
  23 ( 0.667  0.333  0.667)   [-0.29617482 -0.28620334 -0.27693473 -0.27024756 -0.25800175 -0.24807219
 -0.21078128 -0.20459385 -0.20344243 -0.19770469 -0.17465637 -0.12651977
  0.07433965  0.13471556  0.2286681   0.24865549  0.31164916  0.33960934] [0.57450765 0.74079833 0.79196937 0.85064155 0.87806579 0.90223116
 0.94552304 0.99001352]
  24 ( 0.667  0.667  0.000)   [-0.35681269 -0.29860014 -0.28318817 -0.27493568 -0.27167371 -0.25195743
 -0.20581591 -0.20363697 -0.20080854 -0.19891254 -0.143802   -0.12637632
 -0.00773631  0.11958229  0.1382639   0.19404829  0.24495482  0.25884625] [0.48659488 0.76374804 0.82323749 0.8700449  0.92191133 0.93265532
 0.95301551 0.9749928 ]
  25 ( 0.667  0.667  0.333)   [-0.32991767 -0.29182082 -0.28941319 -0.27491317 -0.27186355 -0.25772162
 -0.20451619 -0.20318359 -0.19968586 -0.1989069  -0.14742425 -0.09621065
  0.02498161  0.10274699  0.13849959  0.22004484  0.24373255  0.30980649] [0.55377846 0.76043567 0.81242538 0.83416258 0.91481981 0.94801239
 0.97386971 1.01634822]
  26 ( 0.667  0.667  0.667)   [-0.32285462 -0.29665576 -0.28401964 -0.2741882  -0.27256369 -0.24983562
 -0.21361565 -0.20430865 -0.20020875 -0.19891707 -0.14673886 -0.10224376
  0.00738419  0.09887391  0.13217587  0.22155393  0.2462428   0.30526089] [0.51068901 0.74503575 0.79745702 0.82403002 0.90803744 0.94334334
 0.96749729 0.99279665]
nelec by numeric integration = 35.999999999971884
    CPU time for vxc    635.67 sec, wall time     25.37 sec
slurmstepd: error: *** JOB 37927608 ON hpc-19-23 CANCELLED AT 2023-10-31T02:01:03 DUE TO TIME LIMIT ***
