Job a_try2 started on hpc-90-30.cm.cluster at Wed Apr 19 12:39:16 2023
jobid: hpc-90-30-0-64404360

  +--------------------------------------------------------------------+
  |  Jaguar version 11.7, release 121                                  |
  |                                                                    |
  |  Copyright Schrodinger, Inc.                                       |
  |  All Rights Reserved.                                              |
  |                                                                    |
  |  The following have contributed to Jaguar (listed alphabetically): |
  |  Mike Beachy, Art Bochevarov, Dale Braden, Yixiang Cao,            |
  |  Alan Chien, Chris Cortis, Rich Friesner, Bill Goddard,            |
  |  Hod Greeley, Tom Hughes, Leif Jacobson, Jean-Marc Langlois,       |
  |  Daniel Levine, Daniel Mainz, Rob Murphy, Dean Philipp,            |
  |  Tom Pollard, Murco Ringnalda, Mark Watson, Haoyu Yu.              |
  |                                                                    |
  |  Use of this program should be acknowledged in publications as:    |
  |                                                                    |
  |  Jaguar, version 11.7, Schrodinger, Inc., New York, NY, 2022.      |
  |                                                                    |
  |  A. D. Bochevarov, E. Harder, T. F. Hughes, J. R. Greenwood,       |
  |  D. A. Braden, D. M. Philipp, D. Rinaldo, M. D. Halls,             |
  |  J. Zhang, R. A. Friesner, "Jaguar: A High-Performance Quantum     |
  |  Chemistry Software Program with Strengths in Life and Materials   |
  |  Sciences", Int. J. Quantum Chem., 2013, 113(18), 2110-2142.       |
  +--------------------------------------------------------------------+
  
  start of program pre
  
  Job name: a_try2
  Executables used: /central/groups/wag/programs/Schrodinger_2022_3/jaguar-v11.7/bin/Linux-x86_64
  Temporary files : /central/scratch/musgrave/pkozlows/a_try2
  Maestro file (input):  a_try2.mae
  Maestro file (output): a_try2.01.mae
  
 Contents of input file: &gen section only
 ----------------Contents start----------------
&gen
basis=6-31G**
igeopt=1
dftname=PBE-D3
ifreq=1
&
 -----------------Contents end-----------------
 
  basis set:               6-31g**                         
  net molecular charge:    0
  multiplicity:            1
  
  number of basis functions....          130
  
 Input geometry:
                                   angstroms
  atom               x                 y                 z
  O1            0.8959613123      2.8613015298      0.0000000000 
  C3            0.9864077371      1.6450357896      0.0000000000 
  C5           -0.2071329786      0.7024721769      0.0000000000 
  C7            0.1475310944     -0.7476761561     -0.3486436900 
  H5           -0.6816864581      0.7695493264      0.9973903214 
  H6           -0.9528999588      1.1129790446     -0.7069678387 
  C10          -1.0509981388     -1.6743160561     -0.3446412276 
  H8            0.6360191467     -0.7750697023     -1.3414747849 
  H9            0.9075968064     -1.1189605442      0.3651718205 
  C13          -1.0107544760     -2.9873426554     -0.6156212308 
  H11           1.9959760396      1.1410146785      0.0000000000 
  H12          -1.9142498872     -3.6026818236     -0.5958399447 
  H13          -0.0740124375     -3.4970791989     -0.8673968112 
  H14          -2.0188634619     -1.2160923881     -0.0982929086 
   
  principal moments of inertia:
        amu*angstrom^2:                22.91354               402.79956               418.41473
                g*cm^2:          3.80488181E-39          6.68864322E-38          6.94793924E-38
   
  rotational constants:
               cm^(-1):      0.73570612      0.04185116      0.04028928
                   GHz:     22.05591456      1.25466624      1.20784229
   
  Molecular weight:      84.06 amu
   
  Stoichiometry: C5H8O
  Molecular Point Group: C1      
  Point Group used: C1
  
 
Number of optimization coordinates:    36
Number of independent coordinates:     36
Number of non-redundant coordinates:   36
Number of frozen coordinates:           0
Number of harmonic constraints:         0
 
Number of geometric degrees of freedom:    36
Maximum geometric degrees of freedom:      36
 " " " " " excluding dummy atoms:          36
 
  nuclear repulsion energy.......           209.034333688 hartrees
 
 Non-default options chosen:
   SCF calculation type: DFT(pbe-d3)                 
   DFT=PBE(X+LC)+PW91 (PBE-D3)
   Geometry will be optimized in redundant internal coordinates
   Vibrational frequencies and related properties will be computed
      from analytic second derivatives
   IR intensities will be computed
   Thermochemical properties will be computed
   Scaling standard convergence criteria by a factor of   1.00
  
 Temporary integer options set:
     73=  2
  
  end of program pre
   
 Time(pre)  user:        2.9  user+sys:        2.9  wallclock:        3.6
  
  start of program onee
  
  smallest eigenvalue of S:    3.099E-03
  number of canonical orbitals.....          130
  end of program onee
   
 Time(onee)  user:        0.3  user+sys:        0.3  wallclock:        0.4
  
  start of program hfig
  
  initial wavefunction generated automatically from atomic wavefunctions
 
  Irreducible     Total no   No of occupied orbitals 
  representation  orbitals   Shell_1  Shell_2    ...
  No Symm          130         23
  ------------------------
  Orbital occupation/shell    1.000
 
  end of program hfig
   
 Time(hfig)  user:        0.3  user+sys:        0.3  wallclock:        0.4
  
  start of program probe
  
  end of program probe
   
 Time(probe)  user:        0.2  user+sys:        0.2  wallclock:        0.4
  
  start of program grid
  
   grid     grid set  grid #  grid sym
  ------    --------  ------  --------
  coarse        0        0        1
  medium        2        1        1
  fine          0        0        1
  ultrafine     4        2        1
  charge        0        0        1
  gradient      4        2        1
  density       0        0        1
  DFT-fine    -11        3        1
  DFT-med.    -10        4        1
  DFT-grad    -12        5        1
  DFT-der2     -8        6        1
  DFT-cphf     -9        7        1
  LMP2-enrg     4        2        1
  LMP2-grad     2        1        1
  DFT-cphf2   -15        8        1
  PBF-dens      0        0        1
  plotting      0        0        1
  Rel-grad    -17        0        1
  
  number of gridpoints: 
     atom        O1       C3       C5       C7       H5       H6      C10
  grid # 1      123       93       86       86      110      110       94
  grid # 2      517      336      289      294      442      441      339
  grid # 3     4304     4304     4304     4304     4304     4304     4304
  grid # 4     1192     1192     1192     1192     1192     1192     1192
  grid # 5     5226     5226     5226     5226     5226     5226     5226
  grid # 6    23504    12650    12650    12650    13718    13718    12650
  grid # 7      714      688      688      688      744      744      688
  grid # 8      360      358      358      358      382      382      358
   
  number of gridpoints: 
     atom        H8       H9      C13      H11      H12      H13      H14
  grid # 1      109      108       87      114      118      116      114
  grid # 2      440      436      317      452      456      454      444
  grid # 3     4304     4304     4304     4304     4304     4304     4304
  grid # 4     1192     1192     1192     1192     1192     1192     1192
  grid # 5     5226     5226     5226     5226     5226     5226     5226
  grid # 6    13718    13718    12650    13718    13718    13718    13718
  grid # 7      744      744      688      744      744      744      744
  grid # 8      382      382      358      382      382      382      382
   
  number of gridpoints: 
     atom     total
  grid # 1     1468
  grid # 2     5657
  grid # 3    60256
  grid # 4    16688
  grid # 5    73164
  grid # 6   196498
  grid # 7    10106
  grid # 8     5206
   
  end of program grid
   
 Time(grid)  user:        1.5  user+sys:        1.5  wallclock:        1.8
  
  start of program rwr
  
  end of program rwr
   
 Time(rwr)  user:        0.6  user+sys:        0.6  wallclock:        0.8
  
  start of program scf
  
 number of electrons..........         46
 number of alpha electrons....         23
 number of beta electrons.....         23
 number of orbitals, total....        130
 number of doubly-occ'd orbs..         23
 number of open shell orbs....          0
 number of occupied orbitals..         23
 number of virtual orbitals...        107
 number of hamiltonians.......          1
 number of shells.............          1
 SCF type: DFT=PBE(X+LC)+PW91 (PBE-D3)
 Energy computed with NOPS off.
 Convergence Criterion:
    Energy (econv):       1.00E-05
    RMS density (dconv):  5.00E-06
  
       i  u  d  i  g                   
       t  p  i  c  r                                 RMS    maximum
       e  d  i  u  i                       energy  density   DIIS  
       r  t  s  t  d       total energy    change  change    error 
  
etot    1  N  N  5  M    -269.26931035434           1.1E-02  1.8E-01
etot    2  Y  Y  6  M    -269.28484197876  1.6E-02  1.1E-02  1.5E-01
etot    3  N  Y  2  U    -268.90684945795 -3.8E-01  9.1E-03  2.1E-01
etot    4  N  Y  2  U    -270.07304413686  1.2E+00  4.3E-03  4.2E-02
etot    5  Y  Y  6  M    -270.13470993135  6.2E-02  1.7E-03  4.3E-02
etot    6  N  Y  2  U    -270.18544937069  5.1E-02  5.4E-04  6.2E-03
etot    7  Y  Y  6  M    -270.18663569817  1.2E-03  2.8E-04  5.8E-03
etot    8  Y  Y  6  M    -270.18782078966  1.2E-03  9.0E-05  1.5E-03
etot    9  Y  Y  6  M    -270.18793260814  1.1E-04  2.1E-05  3.4E-04
etot   10  N  Y  2  U    -270.18796232406  3.0E-05  8.6E-06  1.2E-04
etot   11  N  Y  2  U    -270.18796274444  4.2E-07  4.7E-06  2.1E-05
etot   12  N  N  2  U    -270.18796276491  2.0E-08  0.0E+00  0.0E+00
 
  Computing the dispersion energy correction and its gradients...
  
  
 Energy components, in hartrees:
   (A)  Nuclear repulsion............     209.03433368822
   (E)  Total one-electron terms.....    -778.96914190387
   (I)  Total two-electron terms.....     299.74684545075
   (J)    Coulomb....................     337.97801159565
   (K)    Exchange+Correlation.......     -38.23116614490
   (L)  Electronic energy............    -479.22229645312  (E+I)
   (N0) D3 correction................      -0.00447663483
   (N)  Total energy.................    -270.19243939974  (A+L+N0)
   (O)  Gas phase energy.............    -270.19243939974
  
 SCFE: SCF energy: DFT(pbe-d3)      -270.19243939974 hartrees   iterations:  12
  
 
 HOMO energy:    -0.20294
 LUMO energy:    -0.06685
 
  Orbital energies (hartrees): 
   -18.77311    -9.98716    -9.91645    -9.91517    -9.91105    -9.89693
    -0.95074    -0.73809    -0.67890    -0.59128    -0.52177    -0.49710
    -0.42391    -0.41900    -0.39939    -0.37966    -0.35484    -0.35204
    -0.32365    -0.30706    -0.30309    -0.22514    -0.20294    -0.06685
    -0.02354     0.07640     0.08285     0.09594     0.10634     0.11274
     0.12662     0.15723     0.17237
 
  end of program scf
   
 Time(scf)  user:        7.3  user+sys:        7.3  wallclock:        8.8
  
  start of program der1a
  
  end of program der1a
   
 Time(der1a)  user:        0.2  user+sys:        0.2  wallclock:        0.4
  
  start of program rwr
  
  end of program rwr
   
 Time(rwr)  user:        0.7  user+sys:        0.7  wallclock:        1.0
  
  start of program der1b
  
   
  forces (hartrees/bohr) : total     
   
 atom  label           x              y              z
 ---- --------   -------------  -------------  -------------
    1 O1          1.271503E-04  -3.330833E-05   1.297141E-04
    2 C3         -1.072205E-04  -3.121741E-04  -3.397373E-04
    3 C5         -7.760070E-04   1.216395E-03  -3.450348E-03
    4 C7          3.543218E-04  -4.016113E-04   9.486184E-04
    5 H5          3.087327E-04  -8.297911E-04   1.014870E-03
    6 H6          3.043405E-04   1.566031E-04   9.267216E-04
    7 C10         4.374545E-05  -1.765627E-04   1.207255E-04
    8 H8         -9.220137E-05   6.023164E-05   7.465884E-05
    9 H9          1.619568E-04  -1.846701E-04  -1.048438E-05
   10 C13         7.894797E-05   1.613136E-04   2.132481E-06
   11 H11        -3.087557E-04  -2.857814E-05   5.879396E-04
   12 H12         4.576452E-05  -4.581344E-05  -1.469138E-07
   13 H13         2.924365E-05  -6.426224E-05  -5.262798E-05
   14 H14         1.641056E-05  -6.522767E-05  -4.385082E-05
 -------------   -------------  -------------  -------------
     total        1.864297E-04  -5.474553E-04  -9.181519E-05
   
  end of program der1b
   
 Time(der1b)  user:        1.5  user+sys:        1.5  wallclock:        1.7
  
  start of program geopt
  
 ----------------------------------------------------------------------------
  Geometry optimization step   1
  Total energy:      -270.19243939974 hartrees
 ----------------------------------------------------------------------------
  
  gradient maximum:        3.0457E-03 .  (  4.5000E-04 )
  gradient rms:            8.3886E-04 .  (  3.0000E-04 )
  displacement maximum:    2.6204E-02 .  (  1.8000E-03 )
  displacement rms:        7.2218E-03 .  (  1.2000E-03 )
  
  predicted energy change:  -5.3068E-05
  step size:     0.04333
  trust radius:  0.30000
  
  molecular structure not yet converged...
  
  center of mass moved by:
     x:     1.9882E-03     y:     1.1122E-05     z:    -4.6800E-03
  
  new geometry: 
                                   angstroms
  atom               x                 y                 z
  O1            0.9021258190      2.8594262831     -0.0049920239 
  C3            0.9853520037      1.6427396820      0.0091975714 
  C5           -0.2113293841      0.7056924640     -0.0105461487 
  C7            0.1450521335     -0.7451753613     -0.3563218368 
  H5           -0.6839405863      0.7614309121      0.9898020093 
  H6           -0.9556352256      1.1245852164     -0.7122526160 
  C10          -1.0508566287     -1.6748177149     -0.3385400913 
  H8            0.6242923693     -0.7738423536     -1.3533898945 
  H9            0.9128396359     -1.1128545765      0.3514471321 
  C13          -1.0102193249     -2.9877016832     -0.6090681315 
  H11           1.9909278035      1.1331024462      0.0452014512 
  H12          -1.9119378790     -3.6051868553     -0.5784948349 
  H13          -0.0752710011     -3.4954395327     -0.8713829481 
  H14          -2.0172345286     -1.2189068716     -0.0823055620 
   
  nuclear repulsion energy.......           209.063474241 hartrees
  -------------------------------------------------
 /  end of geometry optimization iteration   1   /
 -------------------------------------------------
   
  end of program geopt
   
 Time(geopt)  user:        0.3  user+sys:        0.3  wallclock:        0.5
  
  start of program onee
  
  smallest eigenvalue of S:    3.093E-03
  number of canonical orbitals.....          130
  end of program onee
   
 Time(onee)  user:        0.2  user+sys:        0.2  wallclock:        0.4
  
  start of program probe
  
  end of program probe
   
 Time(probe)  user:        0.2  user+sys:        0.2  wallclock:        0.3
  
  start of program grid
  
   grid     grid set  grid #  grid sym
  ------    --------  ------  --------
  coarse        0        0        1
  medium        2        1        1
  fine          0        0        1
  ultrafine     4        2        1
  charge        0        0        1
  gradient      4        2        1
  density       0        0        1
  DFT-fine    -11        3        1
  DFT-med.    -10        4        1
  DFT-grad    -12        5        1
  DFT-der2     -8        6        1
  DFT-cphf     -9        7        1
  LMP2-enrg     4        2        1
  LMP2-grad     2        1        1
  DFT-cphf2   -15        8        1
  PBF-dens      0        0        1
  plotting      0        0        1
  Rel-grad    -17        0        1
  
  number of gridpoints: 
     atom        O1       C3       C5       C7       H5       H6      C10
  grid # 1      123       93       86       86      110      110       94
  grid # 2      517      335      287      293      441      442      339
  grid # 3     4304     4304     4304     4304     4304     4304     4304
  grid # 4     1192     1192     1192     1192     1192     1192     1192
  grid # 5     5226     5226     5226     5226     5226     5226     5226
  grid # 6    23504    12650    12650    12650    13718    13718    12650
  grid # 7      714      688      688      688      744      744      688
  grid # 8      360      358      358      358      382      382      358
   
  number of gridpoints: 
     atom        H8       H9      C13      H11      H12      H13      H14
  grid # 1      109      108       87      114      118      116      114
  grid # 2      440      436      317      451      456      454      444
  grid # 3     4304     4304     4304     4304     4304     4304     4304
  grid # 4     1192     1192     1192     1192     1192     1192     1192
  grid # 5     5226     5226     5226     5226     5226     5226     5226
  grid # 6    13718    13718    12650    13718    13718    13718    13718
  grid # 7      744      744      688      744      744      744      744
  grid # 8      382      382      358      382      382      382      382
   
  number of gridpoints: 
     atom     total
  grid # 1     1468
  grid # 2     5652
  grid # 3    60256
  grid # 4    16688
  grid # 5    73164
  grid # 6   196498
  grid # 7    10106
  grid # 8     5206
   
  end of program grid
   
 Time(grid)  user:        1.2  user+sys:        1.2  wallclock:        1.4
  
  start of program rwr
  
  end of program rwr
   
 Time(rwr)  user:        0.6  user+sys:        0.6  wallclock:        0.8
  
  start of program scf
  
 Energy computed with NOPS off.
 Convergence Criterion:
    Energy (econv):       1.00E-05
    RMS density (dconv):  5.00E-06
  
       i  u  d  i  g                   
       t  p  i  c  r                                 RMS    maximum
       e  d  i  u  i                       energy  density   DIIS  
       r  t  s  t  d       total energy    change  change    error 
  
etot    1  N  N  2  U    -270.18767623151           2.4E-04  1.9E-03
etot    2  Y  Y  6  M    -270.18803903475  3.6E-04  4.0E-05  3.9E-04
etot    3  N  Y  2  U    -270.18804004461  1.0E-06  2.9E-05  6.9E-04
etot    4  N  Y  2  U    -270.18804638296  6.3E-06  1.1E-05  3.5E-04
etot    5  N  Y  2  U    -270.18804864851  2.3E-06  1.3E-06  1.2E-05
etot    6  N  N  2  U    -270.18804865404  5.5E-09  0.0E+00  0.0E+00
 
  Computing the dispersion energy correction and its gradients...
  
  
 Energy components, in hartrees:
   (A)  Nuclear repulsion............     209.06347424114
   (E)  Total one-electron terms.....    -779.02643398410
   (I)  Total two-electron terms.....     299.77491108891
   (J)    Coulomb....................     338.00659381915
   (K)    Exchange+Correlation.......     -38.23168273024
   (L)  Electronic energy............    -479.25152289519  (E+I)
   (N0) D3 correction................      -0.00447567277
   (N)  Total energy.................    -270.19252432682  (A+L+N0)
   (O)  Gas phase energy.............    -270.19252432682
  
 SCFE: SCF energy: DFT(pbe-d3)      -270.19252432682 hartrees   iterations:   6
  
 
 HOMO energy:    -0.20288
 LUMO energy:    -0.06663
 
  Orbital energies (hartrees): 
   -18.77309    -9.98699    -9.91645    -9.91516    -9.91101    -9.89699
    -0.95069    -0.73817    -0.67904    -0.59138    -0.52174    -0.49713
    -0.42426    -0.41870    -0.39940    -0.37960    -0.35501    -0.35190
    -0.32383    -0.30712    -0.30310    -0.22521    -0.20288    -0.06663
    -0.02359     0.07655     0.08274     0.09585     0.10567     0.11369
     0.12652     0.15743     0.17179
 
  end of program scf
   
 Time(scf)  user:        5.3  user+sys:        5.3  wallclock:        6.2
  
  start of program der1a
  
  end of program der1a
   
 Time(der1a)  user:        0.2  user+sys:        0.2  wallclock:        0.4
  
  start of program rwr
  
  end of program rwr
   
 Time(rwr)  user:        0.6  user+sys:        0.6  wallclock:        0.9
  
  start of program der1b
  
   
  forces (hartrees/bohr) : total     
   
 atom  label           x              y              z
 ---- --------   -------------  -------------  -------------
    1 O1          7.240414E-05   2.513289E-05  -1.029903E-04
    2 C3         -1.629930E-04  -3.764872E-05  -2.785607E-04
    3 C5         -1.748971E-04   4.222661E-04  -9.839592E-04
    4 C7          5.106155E-05  -1.330623E-04  -1.434216E-04
    5 H5          1.767623E-04  -3.336813E-04   5.107582E-04
    6 H6          1.249149E-04  -1.125377E-04   4.023928E-04
    7 C10         4.506491E-06  -6.251226E-05   6.714747E-05
    8 H8          3.279671E-06  -1.845431E-04  -2.941575E-05
    9 H9         -1.215899E-06   1.691859E-04   2.931673E-05
   10 C13         4.486356E-05  -8.021091E-05  -5.684389E-05
   11 H11        -5.822834E-05  -8.535249E-05   5.455090E-04
   12 H12         5.521591E-05  -5.840370E-05  -4.478632E-06
   13 H13         2.216996E-05  -3.907726E-05  -3.315280E-05
   14 H14         2.161770E-05  -5.602074E-05   1.203889E-05
 -------------   -------------  -------------  -------------
     total        1.794619E-04  -5.664656E-04  -6.565968E-05
   
  end of program der1b
   
 Time(der1b)  user:        1.4  user+sys:        1.4  wallclock:        1.6
  
  start of program geopt
  
 ----------------------------------------------------------------------------
  Geometry optimization step   2
  Total energy:      -270.19252432682 hartrees
 ----------------------------------------------------------------------------
  
  energy change:          -8.4927E-05 .  (  5.0000E-05 )
  gradient maximum:        1.2630E-03 .  (  4.5000E-04 )
  gradient rms:            4.3417E-04 .  (  3.0000E-04 )
  displacement maximum:    1.1697E-01 .  (  1.8000E-03 )
  displacement rms:        2.8230E-02 .  (  1.2000E-03 )
  
  predicted energy change:  -1.4067E-04
  step size:     0.16938
  trust radius:  0.30000
  
  molecular structure not yet converged...
  
  center of mass moved by:
     x:     9.5840E-03     y:    -1.9182E-03     z:    -3.4202E-02
  
  new geometry: 
                                   angstroms
  atom               x                 y                 z
  O1            0.9277646026      2.8498603278     -0.0710329485 
  C3            0.9802556344      1.6372966989      0.0496432905 
  C5           -0.2231865798      0.7147911990     -0.0241246250 
  C7            0.1352069440     -0.7362726073     -0.3727278141 
  H5           -0.6893019706      0.7386593996      0.9844549384 
  H6           -0.9638483346      1.1543574448     -0.7113698508 
  C10          -1.0508015758     -1.6763105546     -0.3056682150 
  H8            0.5803479672     -0.7695257047     -1.3850536336 
  H9            0.9301438536     -1.0903382522      0.3119125067 
  C13          -1.0119225759     -2.9870278544     -0.5855905700 
  H11           1.9598635257      1.1195541479      0.2563312799 
  H12          -1.9061437640     -3.6120909773     -0.5156830394 
  H13          -0.0868274804     -3.4857971872     -0.8955839820 
  H14          -2.0083863198     -1.2298919919     -0.0037696817 
   
  nuclear repulsion energy.......           209.131839944 hartrees
  -------------------------------------------------
 /  end of geometry optimization iteration   2   /
 -------------------------------------------------
   
  end of program geopt
   
 Time(geopt)  user:        0.3  user+sys:        0.3  wallclock:        0.5
  
  start of program onee
  
  smallest eigenvalue of S:    3.088E-03
  number of canonical orbitals.....          130
  end of program onee
   
 Time(onee)  user:        0.3  user+sys:        0.3  wallclock:        0.4
  
  start of program probe
  
  end of program probe
   
 Time(probe)  user:        0.2  user+sys:        0.2  wallclock:        0.4
  
  start of program grid
  
   grid     grid set  grid #  grid sym
  ------    --------  ------  --------
  coarse        0        0        1
  medium        2        1        1
  fine          0        0        1
  ultrafine     4        2        1
  charge        0        0        1
  gradient      4        2        1
  density       0        0        1
  DFT-fine    -11        3        1
  DFT-med.    -10        4        1
  DFT-grad    -12        5        1
  DFT-der2     -8        6        1
  DFT-cphf     -9        7        1
  LMP2-enrg     4        2        1
  LMP2-grad     2        1        1
  DFT-cphf2   -15        8        1
  PBF-dens      0        0        1
  plotting      0        0        1
  Rel-grad    -17        0        1
  
  number of gridpoints: 
     atom        O1       C3       C5       C7       H5       H6      C10
  grid # 1      123       92       85       86      109      110       94
  grid # 2      517      335      286      291      441      443      339
  grid # 3     4304     4304     4304     4304     4304     4304     4304
  grid # 4     1192     1192     1192     1192     1192     1192     1192
  grid # 5     5226     5226     5226     5226     5226     5226     5226
  grid # 6    23504    12650    12650    12650    13718    13718    12650
  grid # 7      714      688      688      688      744      744      688
  grid # 8      360      358      358      358      382      382      358
   
  number of gridpoints: 
     atom        H8       H9      C13      H11      H12      H13      H14
  grid # 1      109      108       87      113      118      116      114
  grid # 2      441      434      317      450      456      454      444
  grid # 3     4304     4304     4304     4304     4304     4304     4304
  grid # 4     1192     1192     1192     1192     1192     1192     1192
  grid # 5     5226     5226     5226     5226     5226     5226     5226
  grid # 6    13718    13718    12650    13718    13718    13718    13718
  grid # 7      744      744      688      744      744      744      744
  grid # 8      382      382      358      382      382      382      382
   
  number of gridpoints: 
     atom     total
  grid # 1     1464
  grid # 2     5648
  grid # 3    60256
  grid # 4    16688
  grid # 5    73164
  grid # 6   196498
  grid # 7    10106
  grid # 8     5206
   
  end of program grid
   
 Time(grid)  user:        1.4  user+sys:        1.4  wallclock:        1.6
  
  start of program rwr
  
  end of program rwr
   
 Time(rwr)  user:        0.6  user+sys:        0.6  wallclock:        0.9
  
  start of program scf
  
 Energy computed with NOPS off.
 Convergence Criterion:
    Energy (econv):       1.00E-05
    RMS density (dconv):  5.00E-06
  
       i  u  d  i  g                   
       t  p  i  c  r                                 RMS    maximum
       e  d  i  u  i                       energy  density   DIIS  
       r  t  s  t  d       total energy    change  change    error 
  
etot    1  N  N  2  U    -270.17821332671           1.2E-03  9.9E-03
etot    2  Y  Y  6  M    -270.18806097533  9.8E-03  2.6E-04  2.3E-03
etot    3  N  Y  2  U    -270.18771274311 -3.5E-04  2.0E-04  5.5E-03
etot    4  Y  Y  6  M    -270.18819454483  4.8E-04  5.8E-05  1.6E-03
etot    5  Y  Y  6  M    -270.18825586550  6.1E-05  1.1E-05  1.6E-04
etot    6  N  Y  2  U    -270.18827284656  1.7E-05  5.0E-06  7.6E-05
etot    7  N  Y  2  U    -270.18827310576  2.6E-07  2.3E-06  3.0E-05
etot    8  N  N  2  U    -270.18827315198  4.6E-08  0.0E+00  0.0E+00
 
  Computing the dispersion energy correction and its gradients...
  
  
 Energy components, in hartrees:
   (A)  Nuclear repulsion............     209.13183994395
   (E)  Total one-electron terms.....    -779.15678251112
   (I)  Total two-electron terms.....     299.83666941519
   (J)    Coulomb....................     338.06881088763
   (K)    Exchange+Correlation.......     -38.23214147244
   (L)  Electronic energy............    -479.32011309593  (E+I)
   (N0) D3 correction................      -0.00447077885
   (N)  Total energy.................    -270.19274393084  (A+L+N0)
   (O)  Gas phase energy.............    -270.19274393084
  
 SCFE: SCF energy: DFT(pbe-d3)      -270.19274393084 hartrees   iterations:   8
  
 
 HOMO energy:    -0.20259
 LUMO energy:    -0.06550
 
  Orbital energies (hartrees): 
   -18.77296    -9.98665    -9.91712    -9.91546    -9.91107    -9.89707
    -0.95045    -0.73857    -0.67946    -0.59193    -0.52130    -0.49761
    -0.42575    -0.41725    -0.39960    -0.37916    -0.35617    -0.35116
    -0.32456    -0.30765    -0.30309    -0.22549    -0.20259    -0.06550
    -0.02413     0.07722     0.08238     0.09543     0.10249     0.11755
     0.12647     0.15775     0.16776
 
  end of program scf
   
 Time(scf)  user:        5.8  user+sys:        5.8  wallclock:        6.8
  
  start of program der1a
  
  end of program der1a
   
 Time(der1a)  user:        0.2  user+sys:        0.2  wallclock:        0.4
  
  start of program rwr
  
  end of program rwr
   
 Time(rwr)  user:        0.6  user+sys:        0.6  wallclock:        0.9
  
  start of program der1b
  
   
  forces (hartrees/bohr) : total     
   
 atom  label           x              y              z
 ---- --------   -------------  -------------  -------------
    1 O1          1.190245E-04  -2.405980E-05  -7.143956E-04
    2 C3         -7.637014E-04   7.010593E-04   6.948676E-06
    3 C5          1.193556E-03  -1.119611E-03   3.797703E-03
    4 C7         -3.816835E-04   1.390069E-04  -1.899206E-03
    5 H5          6.172479E-05   4.462901E-04  -7.582389E-04
    6 H6         -3.950173E-04  -7.568851E-05  -8.614420E-04
    7 C10        -4.900712E-05   7.990309E-05  -8.452584E-05
    8 H8          9.409483E-05  -3.415788E-04  -3.282253E-05
    9 H9         -1.151506E-04   3.517873E-04   1.733749E-04
   10 C13        -1.225177E-06  -3.032451E-04  -1.876028E-04
   11 H11         3.065589E-04  -2.866626E-04   3.871269E-04
   12 H12         2.878973E-05  -8.915976E-05  -1.143022E-05
   13 H13         6.187380E-05  -2.473965E-06  -5.602897E-06
   14 H14         6.474914E-05  -4.880255E-05   1.864697E-04
 -------------   -------------  -------------  -------------
     total        2.245862E-04  -5.732353E-04  -3.644080E-06
   
  end of program der1b
   
 Time(der1b)  user:        1.4  user+sys:        1.4  wallclock:        1.6
  
  start of program geopt
  
 ----------------------------------------------------------------------------
  Geometry optimization step   3
  Total energy:      -270.19274393084 hartrees
 ----------------------------------------------------------------------------
  
  energy change:          -2.1960E-04 .  (  5.0000E-05 )
  gradient maximum:        2.0342E-03 .  (  4.5000E-04 )
  gradient rms:            6.7687E-04 .  (  3.0000E-04 )
  displacement maximum:    2.0367E-01 .  (  1.8000E-03 )
  displacement rms:        4.2031E-02 .  (  1.2000E-03 )
  
  predicted energy change:  -1.7285E-04
  step size:     0.25219
  trust radius:  0.30000
  
  molecular structure not yet converged...
  
  center of mass moved by:
     x:     2.3578E-02     y:    -1.1601E-02     z:    -5.8478E-02
  
  new geometry: 
                                   angstroms
  atom               x                 y                 z
  O1            0.9848204286      2.8174647953     -0.1970016057 
  C3            0.9646814302      1.6358950891      0.1051364873 
  C5           -0.2419459074      0.7293460725     -0.0252979745 
  C7            0.1191007609     -0.7226779453     -0.3775862284 
  H5           -0.6962526901      0.7175524319      0.9928491194 
  H6           -0.9795301330      1.1893615993     -0.6968601093 
  C10          -1.0519215309     -1.6749867858     -0.2493203469 
  H8            0.5193069309     -0.7608979562     -1.4077008838 
  H9            0.9477230220     -1.0609388707      0.2753111142 
  C13          -1.0221391488     -2.9788103454     -0.5593712396 
  H11           1.8670282170      1.1415211621      0.5636346714 
  H12          -1.9042078308     -3.6134900876     -0.4393041748 
  H13          -0.1179901420     -3.4626124044     -0.9455884212 
  H14          -1.9901881185     -1.2435177135      0.1260689278 
   
  nuclear repulsion energy.......           209.269879317 hartrees
  -------------------------------------------------
 /  end of geometry optimization iteration   3   /
 -------------------------------------------------
   
  end of program geopt
   
 Time(geopt)  user:        0.3  user+sys:        0.3  wallclock:        0.4
  
  start of program onee
  
  smallest eigenvalue of S:    3.095E-03
  number of canonical orbitals.....          130
  end of program onee
   
 Time(onee)  user:        0.2  user+sys:        0.2  wallclock:        0.3
  
  start of program probe
  
  end of program probe
   
 Time(probe)  user:        0.3  user+sys:        0.3  wallclock:        0.3
  
  start of program grid
  
   grid     grid set  grid #  grid sym
  ------    --------  ------  --------
  coarse        0        0        1
  medium        2        1        1
  fine          0        0        1
  ultrafine     4        2        1
  charge        0        0        1
  gradient      4        2        1
  density       0        0        1
  DFT-fine    -11        3        1
  DFT-med.    -10        4        1
  DFT-grad    -12        5        1
  DFT-der2     -8        6        1
  DFT-cphf     -9        7        1
  LMP2-enrg     4        2        1
  LMP2-grad     2        1        1
  DFT-cphf2   -15        8        1
  PBF-dens      0        0        1
  plotting      0        0        1
  Rel-grad    -17        0        1
  
  number of gridpoints: 
     atom        O1       C3       C5       C7       H5       H6      C10
  grid # 1      123       92       85       86      108      110       94
  grid # 2      516      333      288      292      442      443      340
  grid # 3     4304     4304     4304     4304     4304     4304     4304
  grid # 4     1192     1192     1192     1192     1192     1192     1192
  grid # 5     5226     5226     5226     5226     5226     5226     5226
  grid # 6    23504    12650    12650    12650    13718    13718    12650
  grid # 7      714      688      688      688      744      744      688
  grid # 8      360      358      358      358      382      382      358
   
  number of gridpoints: 
     atom        H8       H9      C13      H11      H12      H13      H14
  grid # 1      110      107       87      114      118      116      114
  grid # 2      443      434      316      452      456      454      443
  grid # 3     4304     4304     4304     4304     4304     4304     4304
  grid # 4     1192     1192     1192     1192     1192     1192     1192
  grid # 5     5226     5226     5226     5226     5226     5226     5226
  grid # 6    13718    13718    12650    13718    13718    13718    13718
  grid # 7      744      744      688      744      744      744      744
  grid # 8      382      382      358      382      382      382      382
   
  number of gridpoints: 
     atom     total
  grid # 1     1464
  grid # 2     5652
  grid # 3    60256
  grid # 4    16688
  grid # 5    73164
  grid # 6   196498
  grid # 7    10106
  grid # 8     5206
   
  end of program grid
   
 Time(grid)  user:        1.5  user+sys:        1.5  wallclock:        1.7
  
  start of program rwr
  
  end of program rwr
   
 Time(rwr)  user:        0.7  user+sys:        0.7  wallclock:        1.0
  
  start of program scf
  
 Energy computed with NOPS off.
 Convergence Criterion:
    Energy (econv):       1.00E-05
    RMS density (dconv):  5.00E-06
  
       i  u  d  i  g                   
       t  p  i  c  r                                 RMS    maximum
       e  d  i  u  i                       energy  density   DIIS  
       r  t  s  t  d       total energy    change  change    error 
  
etot    1  N  N  2  U    -270.16074590475           1.9E-03  1.6E-02
etot    2  Y  Y  6  M    -270.18757845526  2.7E-02  5.7E-04  5.4E-03
etot    3  N  Y  2  U    -270.18504307283 -2.5E-03  4.4E-04  1.3E-02
etot    4  Y  Y  6  M    -270.18826685141  3.2E-03  8.9E-05  2.0E-03
etot    5  Y  Y  6  M    -270.18838240497  1.2E-04  2.2E-05  3.4E-04
etot    6  N  Y  2  U    -270.18844238516  6.0E-05  9.8E-06  1.5E-04
etot    7  N  Y  2  U    -270.18844329682  9.1E-07  4.5E-06  7.0E-05
etot    8  N  N  2  U    -270.18844346504  1.7E-07  0.0E+00  0.0E+00
 
  Computing the dispersion energy correction and its gradients...
  
  
 Energy components, in hartrees:
   (A)  Nuclear repulsion............     209.26987931663
   (E)  Total one-electron terms.....    -779.42147237130
   (I)  Total two-electron terms.....     299.96314958964
   (J)    Coulomb....................     338.19555384588
   (K)    Exchange+Correlation.......     -38.23240425625
   (L)  Electronic energy............    -479.45832278167  (E+I)
   (N0) D3 correction................      -0.00446582598
   (N)  Total energy.................    -270.19290929102  (A+L+N0)
   (O)  Gas phase energy.............    -270.19290929102
  
 SCFE: SCF energy: DFT(pbe-d3)      -270.19290929102 hartrees   iterations:   8
  
 
 HOMO energy:    -0.20218
 LUMO energy:    -0.06342
 
  Orbital energies (hartrees): 
   -18.77274    -9.98615    -9.91845    -9.91589    -9.91128    -9.89731
    -0.95008    -0.73923    -0.68017    -0.59314    -0.51991    -0.49881
    -0.42761    -0.41499    -0.40019    -0.37838    -0.35797    -0.35001
    -0.32619    -0.30819    -0.30308    -0.22597    -0.20218    -0.06342
    -0.02524     0.07749     0.08272     0.09467     0.09909     0.12284
     0.12623     0.15736     0.16220
 
  end of program scf
   
 Time(scf)  user:        6.8  user+sys:        6.8  wallclock:        8.0
  
  start of program der1a
  
  end of program der1a
   
 Time(der1a)  user:        0.3  user+sys:        0.3  wallclock:        0.4
  
  start of program rwr
  
  end of program rwr
   
 Time(rwr)  user:        0.8  user+sys:        0.8  wallclock:        1.0
  
  start of program der1b
  
   
  forces (hartrees/bohr) : total     
   
 atom  label           x              y              z
 ---- --------   -------------  -------------  -------------
    1 O1          4.544259E-04  -1.634187E-04  -1.147932E-03
    2 C3         -1.714728E-03   1.874674E-03   1.443597E-04
    3 C5          2.519149E-03  -2.687772E-03   9.225971E-03
    4 C7         -5.156175E-04   3.933656E-04  -3.653501E-03
    5 H5         -3.801587E-04   1.266940E-03  -2.037965E-03
    6 H6         -6.844473E-04  -2.256729E-04  -2.473642E-03
    7 C10        -2.204122E-04   1.716669E-04  -2.359170E-04
    8 H8          3.069849E-04  -4.711491E-04  -6.965185E-05
    9 H9         -3.900194E-04   6.808644E-04   3.190326E-04
   10 C13        -5.113433E-05  -5.884972E-04  -3.967567E-04
   11 H11         7.440084E-04  -7.711160E-04  -9.659792E-05
   12 H12         4.832091E-05  -9.014642E-05  -1.836552E-05
   13 H13         6.678821E-05   4.823878E-05   3.194669E-05
   14 H14         1.465822E-04  -4.309285E-05   4.306345E-04
 -------------   -------------  -------------  -------------
     total        3.297416E-04  -6.051160E-04   2.161507E-05
   
  end of program der1b
   
 Time(der1b)  user:        1.6  user+sys:        1.6  wallclock:        1.9
  
  start of program geopt
  
 ----------------------------------------------------------------------------
  Geometry optimization step   4
  Total energy:      -270.19290929102 hartrees
 ----------------------------------------------------------------------------
  
  energy change:          -1.6536E-04 .  (  5.0000E-05 )
  gradient maximum:        6.0513E-03 .  (  4.5000E-04 )
  gradient rms:            1.6605E-03 .  (  3.0000E-04 )
  displacement maximum:    2.0012E-02 .  (  1.8000E-03 )
  displacement rms:        7.3916E-03 .  (  1.2000E-03 )
  
  predicted energy change:  -1.0093E-04
  step size:     0.04435
  trust radius:  0.30000
  
  molecular structure not yet converged...
  
  center of mass moved by:
     x:    -6.8577E-04     y:    -1.6336E-03     z:    -6.9306E-03
  
  new geometry: 
                                   angstroms
  atom               x                 y                 z
  O1            0.9835588786      2.8149637892     -0.2222775557 
  C3            0.9638827323      1.6392604967      0.1021353381 
  C5           -0.2408614972      0.7283832619     -0.0104758104 
  C7            0.1214512850     -0.7242704926     -0.3603379205 
  H5           -0.6999042268      0.7284443391      1.0043656499 
  H6           -0.9762146155      1.1799076619     -0.6922925909 
  C10          -1.0509437983     -1.6762912763     -0.2401165468 
  H8            0.5294904459     -0.7629061826     -1.3873694346 
  H9            0.9447972015     -1.0620589658      0.2992576301 
  C13          -1.0244988698     -2.9760155368     -0.5678900836 
  H11           1.8689782964      1.1508557715      0.5627832316 
  H12          -1.9069063733     -3.6111129376     -0.4525663572 
  H13          -0.1226052586     -3.4556330822     -0.9644034277 
  H14          -1.9866586181     -1.2482157464      0.1455041109 
   
  nuclear repulsion energy.......           209.259877350 hartrees
  -------------------------------------------------
 /  end of geometry optimization iteration   4   /
 -------------------------------------------------
   
  end of program geopt
   
 Time(geopt)  user:        0.3  user+sys:        0.3  wallclock:        0.4
  
  start of program onee
  
  smallest eigenvalue of S:    3.107E-03
  number of canonical orbitals.....          130
  end of program onee
   
 Time(onee)  user:        0.2  user+sys:        0.2  wallclock:        0.4
  
  start of program probe
  
  end of program probe
   
 Time(probe)  user:        0.2  user+sys:        0.2  wallclock:        0.4
  
  start of program grid
  
   grid     grid set  grid #  grid sym
  ------    --------  ------  --------
  coarse        0        0        1
  medium        2        1        1
  fine          0        0        1
  ultrafine     4        2        1
  charge        0        0        1
  gradient      4        2        1
  density       0        0        1
  DFT-fine    -11        3        1
  DFT-med.    -10        4        1
  DFT-grad    -12        5        1
  DFT-der2     -8        6        1
  DFT-cphf     -9        7        1
  LMP2-enrg     4        2        1
  LMP2-grad     2        1        1
  DFT-cphf2   -15        8        1
  PBF-dens      0        0        1
  plotting      0        0        1
  Rel-grad    -17        0        1
  
  number of gridpoints: 
     atom        O1       C3       C5       C7       H5       H6      C10
  grid # 1      123       92       85       86      108      110       94
  grid # 2      515      334      287      293      442      442      340
  grid # 3     4304     4304     4304     4304     4304     4304     4304
  grid # 4     1192     1192     1192     1192     1192     1192     1192
  grid # 5     5226     5226     5226     5226     5226     5226     5226
  grid # 6    23504    12650    12650    12650    13718    13718    12650
  grid # 7      714      688      688      688      744      744      688
  grid # 8      360      358      358      358      382      382      358
   
  number of gridpoints: 
     atom        H8       H9      C13      H11      H12      H13      H14
  grid # 1      110      106       87      115      118      116      114
  grid # 2      443      434      316      452      456      454      443
  grid # 3     4304     4304     4304     4304     4304     4304     4304
  grid # 4     1192     1192     1192     1192     1192     1192     1192
  grid # 5     5226     5226     5226     5226     5226     5226     5226
  grid # 6    13718    13718    12650    13718    13718    13718    13718
  grid # 7      744      744      688      744      744      744      744
  grid # 8      382      382      358      382      382      382      382
   
  number of gridpoints: 
     atom     total
  grid # 1     1464
  grid # 2     5651
  grid # 3    60256
  grid # 4    16688
  grid # 5    73164
  grid # 6   196498
  grid # 7    10106
  grid # 8     5206
   
  end of program grid
   
 Time(grid)  user:        1.6  user+sys:        1.6  wallclock:        1.8
  
  start of program rwr
  
  end of program rwr
   
 Time(rwr)  user:        0.8  user+sys:        0.8  wallclock:        1.1
  
  start of program scf
  
 Energy computed with NOPS off.
 Convergence Criterion:
    Energy (econv):       1.00E-05
    RMS density (dconv):  5.00E-06
  
       i  u  d  i  g                   
       t  p  i  c  r                                 RMS    maximum
       e  d  i  u  i                       energy  density   DIIS  
       r  t  s  t  d       total energy    change  change    error 
  
etot    1  N  N  2  U    -270.18818042000           2.1E-04  1.9E-03
etot    2  Y  Y  6  M    -270.18861379749  4.3E-04  2.8E-05  5.1E-04
etot    3  N  Y  2  U    -270.18860612749 -7.7E-06  2.0E-05  2.9E-04
etot    4  N  Y  2  U    -270.18860762520  1.5E-06  9.9E-06  2.0E-04
etot    5  N  Y  2  U    -270.18860963019  2.0E-06  1.7E-06  3.4E-05
etot    6  N  N  2  U    -270.18860965692  2.7E-08  0.0E+00  0.0E+00
 
  Computing the dispersion energy correction and its gradients...
  
  
 Energy components, in hartrees:
   (A)  Nuclear repulsion............     209.25987735034
   (E)  Total one-electron terms.....    -779.40108059941
   (I)  Total two-electron terms.....     299.95259359214
   (J)    Coulomb....................     338.18443107831
   (K)    Exchange+Correlation.......     -38.23183748616
   (L)  Electronic energy............    -479.44848700726  (E+I)
   (N0) D3 correction................      -0.00446938954
   (N)  Total energy.................    -270.19307904646  (A+L+N0)
   (O)  Gas phase energy.............    -270.19307904646
  
 SCFE: SCF energy: DFT(pbe-d3)      -270.19307904646 hartrees   iterations:   6
  
 
 HOMO energy:    -0.20226
 LUMO energy:    -0.06369
 
  Orbital energies (hartrees): 
   -18.77292    -9.98629    -9.91851    -9.91583    -9.91145    -9.89728
    -0.95020    -0.73913    -0.68015    -0.59318    -0.51978    -0.49881
    -0.42777    -0.41486    -0.40009    -0.37865    -0.35805    -0.34979
    -0.32567    -0.30848    -0.30330    -0.22601    -0.20226    -0.06369
    -0.02522     0.07776     0.08287     0.09469     0.09895     0.12266
     0.12629     0.15709     0.16188
 
  end of program scf
   
 Time(scf)  user:        6.4  user+sys:        6.4  wallclock:        7.4
  
  start of program der1a
  
  end of program der1a
   
 Time(der1a)  user:        0.2  user+sys:        0.2  wallclock:        0.4
  
  start of program rwr
  
  end of program rwr
   
 Time(rwr)  user:        0.7  user+sys:        0.7  wallclock:        1.0
  
  start of program der1b
  
   
  forces (hartrees/bohr) : total     
   
 atom  label           x              y              z
 ---- --------   -------------  -------------  -------------
    1 O1          2.857276E-04  -3.615659E-04  -9.002563E-04
    2 C3         -9.333053E-04   1.278817E-03   2.806924E-04
    3 C5          1.279949E-03  -1.777371E-03   6.411514E-03
    4 C7         -3.588076E-04   3.823726E-04  -2.674537E-03
    5 H5         -1.933457E-04   7.666471E-04  -1.588687E-03
    6 H6         -5.312656E-04  -2.809386E-04  -1.675852E-03
    7 C10        -1.384656E-04   2.066132E-04  -2.334178E-04
    8 H8          2.591495E-04  -3.952983E-04   2.249100E-05
    9 H9         -2.712015E-04   4.775776E-04   3.452266E-04
   10 C13        -5.533269E-05  -3.568729E-04  -3.948798E-04
   11 H11         6.676655E-04  -3.996578E-04  -8.396142E-06
   12 H12         4.888945E-05  -8.856206E-05   9.247326E-06
   13 H13         6.380112E-05   3.574497E-05  -1.384901E-05
   14 H14         1.776220E-04  -8.982958E-05   4.475145E-04
 -------------   -------------  -------------  -------------
     total        3.010802E-04  -6.023230E-04   2.681044E-05
   
  end of program der1b
   
 Time(der1b)  user:        1.6  user+sys:        1.6  wallclock:        1.9
  
  start of program geopt
  
 ----------------------------------------------------------------------------
  Geometry optimization step   5
  Total energy:      -270.19307904646 hartrees
 ----------------------------------------------------------------------------
  
  
  Level shifts adjusted to satisfy step-size constraints
   Step size:    0.3000208
   Cos(theta):   0.3871167
   Final level shift:  -3.1066062E-03
  
  energy change:          -1.6976E-04 .  (  5.0000E-05 )
  gradient maximum:        4.0075E-03 .  (  4.5000E-04 )
  gradient rms:            1.1492E-03 .  (  3.0000E-04 )
  displacement maximum:    2.0789E-01 .  (  1.8000E-03 )
  displacement rms:        5.0003E-02 .  (  1.2000E-03 )
  
  predicted energy change:  -5.4022E-04
  step size:     0.30002
  trust radius:  0.30000
  
  molecular structure not yet converged...
  
  center of mass moved by:
     x:     1.6404E-02     y:    -2.6575E-02     z:    -6.6140E-02
  
  new geometry: 
                                   angstroms
  atom               x                 y                 z
  O1            1.0237279406      2.7531168868     -0.4151057943 
  C3            0.9459926588      1.6580046141      0.1159768135 
  C5           -0.2526377403      0.7370104836      0.0528052056 
  C7            0.1244820201     -0.7191584483     -0.2722504810 
  H5           -0.7348396800      0.7761097153      1.0513580293 
  H6           -0.9717178230      1.1475263142     -0.6771055689 
  C10          -1.0426399165     -1.6778111355     -0.1520464589 
  H8            0.5511726566     -0.7713931897     -1.2904454158 
  H9            0.9370330254     -1.0369115878      0.4105880352 
  C13          -1.0497929239     -2.9407060987     -0.6031880061 
  H11           1.7998140602      1.2483480327      0.7308913182 
  H12          -1.9220981697     -3.5873524904     -0.4753484969 
  H13          -0.1858279144     -3.3763846483     -1.1173013541 
  H14          -1.9406270907     -1.2882068764      0.3474908649 
   
  nuclear repulsion energy.......           209.474176648 hartrees
  -------------------------------------------------
 /  end of geometry optimization iteration   5   /
 -------------------------------------------------
   
  end of program geopt
   
 Time(geopt)  user:        0.3  user+sys:        0.3  wallclock:        0.4
  
  start of program onee
  
  smallest eigenvalue of S:    3.171E-03
  number of canonical orbitals.....          130
  end of program onee
   
 Time(onee)  user:        0.2  user+sys:        0.2  wallclock:        0.3
  
  start of program probe
  
  end of program probe
   
 Time(probe)  user:        0.2  user+sys:        0.2  wallclock:        0.3
  
  start of program grid
  
   grid     grid set  grid #  grid sym
  ------    --------  ------  --------
  coarse        0        0        1
  medium        2        1        1
  fine          0        0        1
  ultrafine     4        2        1
  charge        0        0        1
  gradient      4        2        1
  density       0        0        1
  DFT-fine    -11        3        1
  DFT-med.    -10        4        1
  DFT-grad    -12        5        1
  DFT-der2     -8        6        1
  DFT-cphf     -9        7        1
  LMP2-enrg     4        2        1
  LMP2-grad     2        1        1
  DFT-cphf2   -15        8        1
  PBF-dens      0        0        1
  plotting      0        0        1
  Rel-grad    -17        0        1
  
  number of gridpoints: 
     atom        O1       C3       C5       C7       H5       H6      C10
  grid # 1      123       92       86       86      108      110       95
  grid # 2      515      335      288      290      438      444      340
  grid # 3     4304     4304     4304     4304     4304     4304     4304
  grid # 4     1192     1192     1192     1192     1192     1192     1192
  grid # 5     5226     5226     5226     5226     5226     5226     5226
  grid # 6    23504    12650    12650    12650    13718    13718    12650
  grid # 7      714      688      688      688      744      744      688
  grid # 8      360      358      358      358      382      382      358
   
  number of gridpoints: 
     atom        H8       H9      C13      H11      H12      H13      H14
  grid # 1      110      107       87      115      118      117      114
  grid # 2      438      435      316      449      456      453      442
  grid # 3     4304     4304     4304     4304     4304     4304     4304
  grid # 4     1192     1192     1192     1192     1192     1192     1192
  grid # 5     5226     5226     5226     5226     5226     5226     5226
  grid # 6    13718    13718    12650    13718    13718    13718    13718
  grid # 7      744      744      688      744      744      744      744
  grid # 8      382      382      358      382      382      382      382
   
  number of gridpoints: 
     atom     total
  grid # 1     1468
  grid # 2     5639
  grid # 3    60256
  grid # 4    16688
  grid # 5    73164
  grid # 6   196498
  grid # 7    10106
  grid # 8     5206
   
  end of program grid
   
 Time(grid)  user:        1.4  user+sys:        1.4  wallclock:        1.8
  
  start of program rwr
  
  end of program rwr
   
 Time(rwr)  user:        0.7  user+sys:        0.7  wallclock:        1.0
  
  start of program scf
  
 Energy computed with NOPS off.
 Convergence Criterion:
    Energy (econv):       1.00E-05
    RMS density (dconv):  5.00E-06
  
       i  u  d  i  g                   
       t  p  i  c  r                                 RMS    maximum
       e  d  i  u  i                       energy  density   DIIS  
       r  t  s  t  d       total energy    change  change    error 
  
etot    1  N  N  2  U    -270.15314111242           2.0E-03  1.7E-02
etot    2  Y  Y  6  M    -270.18823374026  3.5E-02  5.9E-04  6.2E-03
etot    3  N  Y  2  U    -270.18542335424 -2.8E-03  4.7E-04  1.4E-02
etot    4  Y  Y  6  M    -270.18897276374  3.5E-03  9.4E-05  2.4E-03
etot    5  Y  Y  6  M    -270.18912862621  1.6E-04  2.1E-05  2.8E-04
etot    6  N  Y  2  U    -270.18920045543  7.2E-05  9.8E-06  1.4E-04
etot    7  N  Y  2  U    -270.18920132436  8.7E-07  4.8E-06  7.9E-05
etot    8  N  N  2  U    -270.18920148060  1.6E-07  0.0E+00  0.0E+00
 
  Computing the dispersion energy correction and its gradients...
  
  
 Energy components, in hartrees:
   (A)  Nuclear repulsion............     209.47417664775
   (E)  Total one-electron terms.....    -779.82307258112
   (I)  Total two-electron terms.....     300.15969445277
   (J)    Coulomb....................     338.39006888834
   (K)    Exchange+Correlation.......     -38.23037443557
   (L)  Electronic energy............    -479.66337812835  (E+I)
   (N0) D3 correction................      -0.00448664660
   (N)  Total energy.................    -270.19368812720  (A+L+N0)
   (O)  Gas phase energy.............    -270.19368812720
  
 SCFE: SCF energy: DFT(pbe-d3)      -270.19368812720 hartrees   iterations:   8
  
 
 HOMO energy:    -0.20245
 LUMO energy:    -0.06382
 
  Orbital energies (hartrees): 
   -18.77404    -9.98650    -9.91932    -9.91533    -9.91173    -9.89761
    -0.95089    -0.73911    -0.68020    -0.59361    -0.51802    -0.49973
    -0.42946    -0.41287    -0.40029    -0.37992    -0.35908    -0.34788
    -0.32411    -0.31004    -0.30409    -0.22657    -0.20245    -0.06382
    -0.02526     0.07953     0.08372     0.09327     0.09793     0.12470
     0.12707     0.15355     0.15797
 
  end of program scf
   
 Time(scf)  user:        6.7  user+sys:        6.7  wallclock:        7.8
  
  start of program der1a
  
  end of program der1a
   
 Time(der1a)  user:        0.2  user+sys:        0.2  wallclock:        0.4
  
  start of program rwr
  
  end of program rwr
   
 Time(rwr)  user:        0.7  user+sys:        0.7  wallclock:        1.0
  
  start of program der1b
  
   
  forces (hartrees/bohr) : total     
   
 atom  label           x              y              z
 ---- --------   -------------  -------------  -------------
    1 O1         -2.559087E-04  -4.621945E-04  -2.299106E-04
    2 C3          1.422209E-03  -6.676719E-04   1.404061E-03
    3 C5         -2.673358E-03   1.449933E-03  -3.213745E-03
    4 C7          4.912813E-04  -3.405603E-04   9.352229E-04
    5 H5          1.223899E-04  -6.698293E-04   1.669453E-04
    6 H6          1.380137E-04  -8.873342E-05   9.482945E-04
    7 C10         2.799219E-04   2.702143E-04  -5.652993E-04
    8 H8          2.330803E-04  -2.383379E-04   3.203252E-04
    9 H9          5.799507E-05  -2.574134E-04   4.832809E-04
   10 C13        -2.056815E-04   2.998210E-04  -5.919670E-04
   11 H11         1.758720E-04   4.573483E-04  -3.669738E-04
   12 H12         1.033724E-04  -6.446564E-05   7.124413E-05
   13 H13        -1.777698E-05   6.285430E-05  -1.144068E-04
   14 H14         4.012731E-04  -2.991233E-04   7.997468E-04
 -------------   -------------  -------------  -------------
     total        2.726827E-04  -5.481588E-04   4.681754E-05
   
  end of program der1b
   
 Time(der1b)  user:        1.6  user+sys:        1.6  wallclock:        1.8
  
  start of program geopt
  
 ----------------------------------------------------------------------------
  Geometry optimization step   6
  Total energy:      -270.19368812720 hartrees
 ----------------------------------------------------------------------------
  
  
  Level shifts adjusted to satisfy step-size constraints
   Step size:    0.3000090
   Cos(theta):   0.3610002
   Final level shift:  -3.9994299E-03
  
  energy change:          -6.0908E-04 .  (  5.0000E-05 )
  gradient maximum:        2.6215E-03 .  (  4.5000E-04 )
  gradient rms:            9.1909E-04 .  (  3.0000E-04 )
  displacement maximum:    1.7459E-01 .  (  1.8000E-03 )
  displacement rms:        5.0001E-02 .  (  1.2000E-03 )
  
  predicted energy change:  -4.7861E-04
  step size:     0.30001
  trust radius:  0.30000
  
  molecular structure not yet converged...
  
  center of mass moved by:
     x:     1.9149E-02     y:    -3.4656E-02     z:    -5.6268E-02
  
  new geometry: 
                                   angstroms
  atom               x                 y                 z
  O1            1.0693227168      2.6696219679     -0.5738791529 
  C3            0.9239653163      1.6787669893      0.1219318057 
  C5           -0.2689216485      0.7499413480      0.0926596721 
  C7            0.1311624042     -0.7122303177     -0.1877570677 
  H5           -0.7711275278      0.8220858304      1.0765843699 
  H6           -0.9731717130      1.1172384738     -0.6764583224 
  C10          -1.0278186040     -1.6792913929     -0.0658021383 
  H8            0.5830339674     -0.7877956869     -1.1928378216 
  H9            0.9287406001     -1.0015421008      0.5256439233 
  C13          -1.0821419587     -2.8895478771     -0.6414792360 
  H11           1.7136062195      1.3716085716      0.8700427396 
  H12          -1.9408351740     -3.5513029538     -0.4996183431 
  H13          -0.2714060866     -3.2642817705     -1.2759195872 
  H14          -1.8742305088     -1.3443288448      0.5500756662 
   
  nuclear repulsion energy.......           209.769851522 hartrees
  -------------------------------------------------
 /  end of geometry optimization iteration   6   /
 -------------------------------------------------
   
  end of program geopt
   
 Time(geopt)  user:        0.3  user+sys:        0.3  wallclock:        0.5
  
  start of program onee
  
  smallest eigenvalue of S:    3.242E-03
  number of canonical orbitals.....          130
  end of program onee
   
 Time(onee)  user:        0.2  user+sys:        0.2  wallclock:        0.4
  
  start of program probe
  
  end of program probe
   
 Time(probe)  user:        0.3  user+sys:        0.3  wallclock:        0.3
  
  start of program grid
  
   grid     grid set  grid #  grid sym
  ------    --------  ------  --------
  coarse        0        0        1
  medium        2        1        1
  fine          0        0        1
  ultrafine     4        2        1
  charge        0        0        1
  gradient      4        2        1
  density       0        0        1
  DFT-fine    -11        3        1
  DFT-med.    -10        4        1
  DFT-grad    -12        5        1
  DFT-der2     -8        6        1
  DFT-cphf     -9        7        1
  LMP2-enrg     4        2        1
  LMP2-grad     2        1        1
  DFT-cphf2   -15        8        1
  PBF-dens      0        0        1
  plotting      0        0        1
  Rel-grad    -17        0        1
  
  number of gridpoints: 
     atom        O1       C3       C5       C7       H5       H6      C10
  grid # 1      123       92       86       87      109      111       94
  grid # 2      515      335      285      290      439      441      340
  grid # 3     4304     4304     4304     4304     4304     4304     4304
  grid # 4     1192     1192     1192     1192     1192     1192     1192
  grid # 5     5226     5226     5226     5226     5226     5226     5226
  grid # 6    23504    12650    12650    12650    13718    13718    12650
  grid # 7      714      688      688      688      744      744      688
  grid # 8      360      358      358      358      382      382      358
   
  number of gridpoints: 
     atom        H8       H9      C13      H11      H12      H13      H14
  grid # 1      110      109       87      114      118      117      115
  grid # 2      437      440      316      452      456      450      443
  grid # 3     4304     4304     4304     4304     4304     4304     4304
  grid # 4     1192     1192     1192     1192     1192     1192     1192
  grid # 5     5226     5226     5226     5226     5226     5226     5226
  grid # 6    13718    13718    12650    13718    13718    13718    13718
  grid # 7      744      744      688      744      744      744      744
  grid # 8      382      382      358      382      382      382      382
   
  number of gridpoints: 
     atom     total
  grid # 1     1472
  grid # 2     5639
  grid # 3    60256
  grid # 4    16688
  grid # 5    73164
  grid # 6   196498
  grid # 7    10106
  grid # 8     5206
   
  end of program grid
   
 Time(grid)  user:        1.5  user+sys:        1.5  wallclock:        1.8
  
  start of program rwr
  
  end of program rwr
   
 Time(rwr)  user:        0.7  user+sys:        0.7  wallclock:        0.9
  
  start of program scf
  
 Energy computed with NOPS off.
 Convergence Criterion:
    Energy (econv):       1.00E-05
    RMS density (dconv):  5.00E-06
  
       i  u  d  i  g                   
       t  p  i  c  r                                 RMS    maximum
       e  d  i  u  i                       energy  density   DIIS  
       r  t  s  t  d       total energy    change  change    error 
  
etot    1  N  N  2  U    -270.15706881068           1.9E-03  1.7E-02
etot    2  Y  Y  6  M    -270.18912184083  3.2E-02  4.8E-04  5.1E-03
etot    3  N  Y  2  U    -270.18740728307 -1.7E-03  3.9E-04  1.2E-02
etot    4  Y  Y  6  M    -270.18961248229  2.2E-03  9.2E-05  2.5E-03
etot    5  Y  Y  6  M    -270.18976334466  1.5E-04  2.0E-05  2.8E-04
etot    6  N  Y  2  U    -270.18982392849  6.1E-05  8.7E-06  1.2E-04
etot    7  N  Y  2  U    -270.18982457739  6.5E-07  4.4E-06  6.3E-05
etot    8  N  N  2  U    -270.18982472747  1.5E-07  0.0E+00  0.0E+00
 
  Computing the dispersion energy correction and its gradients...
  
  
 Energy components, in hartrees:
   (A)  Nuclear repulsion............     209.76985152170
   (E)  Total one-electron terms.....    -780.41020516612
   (I)  Total two-electron terms.....     300.45052891695
   (J)    Coulomb....................     338.67956341920
   (K)    Exchange+Correlation.......     -38.22903450225
   (L)  Electronic energy............    -479.95967624917  (E+I)
   (N0) D3 correction................      -0.00450325152
   (N)  Total energy.................    -270.19432797899  (A+L+N0)
   (O)  Gas phase energy.............    -270.19432797899
  
 SCFE: SCF energy: DFT(pbe-d3)      -270.19432797899 hartrees   iterations:   8
  
 
 HOMO energy:    -0.20245
 LUMO energy:    -0.06385
 
  Orbital energies (hartrees): 
   -18.77463    -9.98659    -9.92018    -9.91513    -9.91203    -9.89785
    -0.95126    -0.73908    -0.68017    -0.59406    -0.51625    -0.50075
    -0.43083    -0.41187    -0.39955    -0.38111    -0.35951    -0.34650
    -0.32351    -0.31065    -0.30462    -0.22742    -0.20245    -0.06385
    -0.02451     0.07990     0.08518     0.09132     0.09921     0.12435
     0.12944     0.14857     0.15592
 
  end of program scf
   
 Time(scf)  user:        6.6  user+sys:        6.6  wallclock:        7.6
  
  start of program der1a
  
  end of program der1a
   
 Time(der1a)  user:        0.2  user+sys:        0.2  wallclock:        0.4
  
  start of program rwr
  
  end of program rwr
   
 Time(rwr)  user:        0.7  user+sys:        0.7  wallclock:        0.9
  
  start of program der1b
  
   
  forces (hartrees/bohr) : total     
   
 atom  label           x              y              z
 ---- --------   -------------  -------------  -------------
    1 O1         -6.851210E-04  -4.114681E-04  -1.432685E-05
    2 C3          2.607896E-03  -1.577029E-03   2.646674E-03
    3 C5         -4.279993E-03   2.560632E-03  -8.082819E-03
    4 C7          5.842226E-04  -8.798815E-04   2.787415E-03
    5 H5          1.187700E-04  -1.256092E-03   1.072208E-03
    6 H6          3.865912E-04  -8.317979E-06   2.089597E-03
    7 C10         7.990636E-04   6.413474E-04  -8.668857E-04
    8 H8          2.156629E-04  -1.529824E-04   3.459097E-04
    9 H9          5.650093E-05  -4.261009E-04   6.343569E-04
   10 C13        -3.506921E-04   7.989723E-04  -6.995338E-04
   11 H11         5.222461E-05   7.457630E-04  -8.958063E-04
   12 H12         7.570248E-05  -8.226655E-05   5.620035E-05
   13 H13         1.722803E-06   7.404574E-05  -1.232370E-04
   14 H14         6.896778E-04  -4.785190E-04   1.081827E-03
 -------------   -------------  -------------  -------------
     total        2.722285E-04  -4.518970E-04   3.157924E-05
   
  end of program der1b
   
 Time(der1b)  user:        1.5  user+sys:        1.5  wallclock:        1.7
  
  start of program geopt
  
 ----------------------------------------------------------------------------
  Geometry optimization step   7
  Total energy:      -270.19432797899 hartrees
 ----------------------------------------------------------------------------
  Invalidating history between points   1  and   5

  
  Hessian eigenvalues: 
   -1.99976E-01    1.70438E-04    6.86616E-03    6.42472E-02    6.52433E-02
    9.70019E-02    1.18813E-01    1.48068E-01    1.51944E-01    1.58381E-01
    1.60083E-01    1.91446E-01    1.99172E-01    2.11295E-01    2.34174E-01
    2.40872E-01    2.56109E-01    2.60470E-01    2.88086E-01    3.05202E-01
    3.15482E-01    3.20865E-01    3.22997E-01    3.25024E-01    3.30982E-01
    3.34787E-01    3.37207E-01    3.74437E-01    3.92337E-01    4.37565E-01
    4.57505E-01    4.80076E-01    5.31402E-01    5.32134E-01    6.60538E-01
    7.21943E-01
  
 WARNING: Hessian has wrong number of negative eigenvalues:           1
  
  
  Level shifts adjusted to satisfy step-size constraints
   Step size:    0.3005252
   Cos(theta):   0.8499309
   Final level shift:  -2.2741872E-01
  
  energy change:          -6.3985E-04 .  (  5.0000E-05 )
  gradient maximum:        5.0083E-03 .  (  4.5000E-04 )
  gradient rms:            1.6603E-03 .  (  3.0000E-04 )
  displacement maximum:    1.3908E-01 .  (  1.8000E-03 )
  displacement rms:        5.0087E-02 .  (  1.2000E-03 )
  
  predicted energy change:  -1.1542E-02
  step size:     0.30052
  trust radius:  0.30000
  
  molecular structure not yet converged...
  
  center of mass moved by:
     x:    -2.7135E-03     y:    -9.1777E-03     z:    -2.0405E-02
  
  new geometry: 
                                   angstroms
  atom               x                 y                 z
  O1            1.0720432134      2.6418601315     -0.5418991738 
  C3            0.9146426121      1.6308944421      0.1189825087 
  C5           -0.3187756252      0.7550411738      0.0003240384 
  C7            0.1358031810     -0.7026459178     -0.1836848513 
  H5           -0.7528394489      0.7353806915      1.0416565227 
  H6           -1.0590853177      1.2133110282     -0.6348783499 
  C10          -0.9946079254     -1.6539151255     -0.0433826410 
  H8            0.6750157787     -0.8064206969     -1.1411543374 
  H9            0.8722982486     -0.9590579090      0.6105407071 
  C13          -1.0663690946     -2.8501186223     -0.6301485485 
  H11           1.6960664738      1.2922200035      0.8376455353 
  H12          -1.9218842196     -3.5135883376     -0.4695942978 
  H13          -0.2756188645     -3.2160989927     -1.2954798156 
  H14          -1.8164081131     -1.3199243689      0.6054276785 
   
  nuclear repulsion energy.......           211.597625891 hartrees
  -------------------------------------------------
 /  end of geometry optimization iteration   7   /
 -------------------------------------------------
   
  end of program geopt
   
 Time(geopt)  user:        0.3  user+sys:        0.3  wallclock:        0.4
  
  start of program onee
  
  smallest eigenvalue of S:    2.878E-03
  number of canonical orbitals.....          130
  end of program onee
   
 Time(onee)  user:        0.2  user+sys:        0.2  wallclock:        0.3
  
  start of program probe
  
  end of program probe
   
 Time(probe)  user:        0.2  user+sys:        0.2  wallclock:        0.3
  
  start of program grid
  
   grid     grid set  grid #  grid sym
  ------    --------  ------  --------
  coarse        0        0        1
  medium        2        1        1
  fine          0        0        1
  ultrafine     4        2        1
  charge        0        0        1
  gradient      4        2        1
  density       0        0        1
  DFT-fine    -11        3        1
  DFT-med.    -10        4        1
  DFT-grad    -12        5        1
  DFT-der2     -8        6        1
  DFT-cphf     -9        7        1
  LMP2-enrg     4        2        1
  LMP2-grad     2        1        1
  DFT-cphf2   -15        8        1
  PBF-dens      0        0        1
  plotting      0        0        1
  Rel-grad    -17        0        1
  
  number of gridpoints: 
     atom        O1       C3       C5       C7       H5       H6      C10
  grid # 1      123       92       84       87      107      112       94
  grid # 2      515      330      289      285      434      446      335
  grid # 3     4304     4304     4304     4304     4304     4304     4304
  grid # 4     1192     1192     1192     1192     1192     1192     1192
  grid # 5     5226     5226     5226     5226     5226     5226     5226
  grid # 6    23504    12650    12650    12650    13718    13718    12650
  grid # 7      714      688      688      688      744      744      688
  grid # 8      360      358      358      358      382      382      358
   
  number of gridpoints: 
     atom        H8       H9      C13      H11      H12      H13      H14
  grid # 1      111      107       87      114      118      117      113
  grid # 2      437      438      316      449      456      451      438
  grid # 3     4304     4304     4304     4304     4304     4304     4304
  grid # 4     1192     1192     1192     1192     1192     1192     1192
  grid # 5     5226     5226     5226     5226     5226     5226     5226
  grid # 6    13718    13718    12650    13718    13718    13718    13718
  grid # 7      744      744      688      744      744      744      744
  grid # 8      382      382      358      382      382      382      382
   
  number of gridpoints: 
     atom     total
  grid # 1     1466
  grid # 2     5619
  grid # 3    60256
  grid # 4    16688
  grid # 5    73164
  grid # 6   196498
  grid # 7    10106
  grid # 8     5206
   
  end of program grid
   
 Time(grid)  user:        1.5  user+sys:        1.5  wallclock:        1.8
  
  start of program rwr
  
  end of program rwr
   
 Time(rwr)  user:        0.7  user+sys:        0.7  wallclock:        1.0
  
  start of program scf
  
 Energy computed with NOPS off.
 Convergence Criterion:
    Energy (econv):       1.00E-05
    RMS density (dconv):  5.00E-06
  
       i  u  d  i  g                   
       t  p  i  c  r                                 RMS    maximum
       e  d  i  u  i                       energy  density   DIIS  
       r  t  s  t  d       total energy    change  change    error 
  
etot    1  N  N  2  U    -270.17741938015           9.6E-04  8.2E-03
etot    2  Y  Y  6  M    -270.18424517585  6.8E-03  3.5E-04  2.0E-03
etot    3  N  Y  2  U    -270.18317249457 -1.1E-03  2.6E-04  6.2E-03
etot    4  Y  Y  6  M    -270.18442961799  1.3E-03  4.5E-05  8.2E-04
etot    5  N  Y  2  U    -270.18448447839  5.5E-05  1.3E-05  1.3E-04
etot    6  N  Y  2  U    -270.18448596942  1.5E-06  4.8E-06  7.5E-05
etot    7  N  N  2  U    -270.18448619126  2.2E-07  0.0E+00  0.0E+00
 
  Computing the dispersion energy correction and its gradients...
  
  
 Energy components, in hartrees:
   (A)  Nuclear repulsion............     211.59762589074
   (E)  Total one-electron terms.....    -784.05483266187
   (I)  Total two-electron terms.....     302.27272057986
   (J)    Coulomb....................     340.53004033678
   (K)    Exchange+Correlation.......     -38.25731975692
   (L)  Electronic energy............    -481.78211208200  (E+I)
   (N0) D3 correction................      -0.00449181293
   (N)  Total energy.................    -270.18897800419  (A+L+N0)
   (O)  Gas phase energy.............    -270.18897800419
  
 SCFE: SCF energy: DFT(pbe-d3)      -270.18897800419 hartrees   iterations:   7
  
 
 HOMO energy:    -0.19887
 LUMO energy:    -0.05978
 
  Orbital energies (hartrees): 
   -18.76960    -9.98292    -9.91926    -9.91462    -9.90825    -9.89571
    -0.94920    -0.74500    -0.68053    -0.59267    -0.52192    -0.49997
    -0.43246    -0.41114    -0.40016    -0.38051    -0.36115    -0.34166
    -0.33814    -0.30601    -0.29914    -0.22781    -0.19887    -0.05978
    -0.02121     0.06753     0.08443     0.09422     0.10285     0.12149
     0.13498     0.15046     0.16476
 
  end of program scf
   
 Time(scf)  user:        6.5  user+sys:        6.5  wallclock:        7.4
  
  start of program der1a
  
  end of program der1a
   
 Time(der1a)  user:        0.2  user+sys:        0.2  wallclock:        0.4
  
  start of program rwr
  
  end of program rwr
   
 Time(rwr)  user:        0.7  user+sys:        0.7  wallclock:        1.0
  
  start of program der1b
  
   
  forces (hartrees/bohr) : total     
   
 atom  label           x              y              z
 ---- --------   -------------  -------------  -------------
    1 O1          4.822578E-03   6.690862E-03  -1.179707E-03
    2 C3         -1.301991E-02   6.322033E-03  -1.174918E-02
    3 C5          2.110060E-02  -4.924859E-03   4.750401E-02
    4 C7          3.593562E-03   4.517518E-03  -6.903789E-03
    5 H5         -1.780345E-04   5.776437E-03  -8.148015E-03
    6 H6         -6.298027E-03  -1.736226E-03  -1.682955E-02
    7 C10        -8.450629E-03  -4.813596E-03  -2.220497E-03
    8 H8         -1.373504E-03  -4.796697E-03  -1.123090E-03
    9 H9          4.688708E-04   6.304400E-03  -1.505404E-03
   10 C13        -3.151860E-03  -7.936681E-03  -3.739500E-03
   11 H11         2.586041E-03  -4.510202E-03   4.866569E-03
   12 H12         9.016768E-04  -2.768437E-04  -1.377845E-04
   13 H13        -6.154155E-04   3.488828E-04   4.365174E-05
   14 H14         1.322139E-04  -1.443567E-03   1.219671E-03
 -------------   -------------  -------------  -------------
     total        5.181579E-04  -4.785384E-04   9.738351E-05
   
  end of program der1b
   
 Time(der1b)  user:        1.6  user+sys:        1.6  wallclock:        1.7
  
  start of program geopt
  
 ----------------------------------------------------------------------------
  Geometry optimization step   8
  Total energy:      -270.18897800419 hartrees
 ----------------------------------------------------------------------------
  ** restarting optimization from step    7 **
  
  
  Level shifts adjusted to satisfy step-size constraints
   Step size:    0.3004506
   Cos(theta):   0.4120443
   Final level shift:  -8.5048588E-03
  
  energy change:           5.3500E-03 .  (  5.0000E-05 )
  gradient maximum:        5.0083E-03 .  (  4.5000E-04 )
  gradient rms:            1.6603E-03 .  (  3.0000E-04 )
  displacement maximum:    1.9162E-01 .  (  1.8000E-03 )
  displacement rms:        5.0075E-02 .  (  1.2000E-03 )
  
  predicted energy change:  -1.0005E-03
  step size:     0.30045
  trust radius:  0.30000
  center of mass moved by:
     x:     1.3878E-17     y:    -2.7062E-16     z:     0.0000E+00
  
  new geometry: 
                                   angstroms
  atom               x                 y                 z
  O1            1.1326265386      2.5513982004     -0.7152003513 
  C3            0.9107968695      1.6686430648      0.0963639743 
  C5           -0.2887890721      0.7450931885      0.0742063592 
  C7            0.1490991129     -0.7214411425     -0.1409584584 
  H5           -0.8010769576      0.8256556276      1.0543163794 
  H6           -0.9851137559      1.0938136094     -0.7045671127 
  C10          -0.9921743752     -1.6997985065     -0.0125459831 
  H8            0.6529119660     -0.8306248227     -1.1167821008 
  H9            0.9131355493     -0.9665804908      0.6265490883 
  C13          -1.1050579617     -2.8447926695     -0.7008603527 
  H11           1.6325236053      1.4612492068      0.9380305709 
  H12          -1.9428226343     -3.5287655340     -0.5393314043 
  H13          -0.3647297614     -3.1408947344     -1.4519713742 
  H14          -1.7711504732     -1.4340113200      0.7159421362 
   
  nuclear repulsion energy.......           210.329327259 hartrees
  -------------------------------------------------
 /  end of geometry optimization iteration   8   /
 -------------------------------------------------
   
  end of program geopt
   
 Time(geopt)  user:        0.3  user+sys:        0.3  wallclock:        0.4
  
  start of program onee
  
  smallest eigenvalue of S:    3.262E-03
  number of canonical orbitals.....          130
  end of program onee
   
 Time(onee)  user:        0.2  user+sys:        0.2  wallclock:        0.3
  
  start of program probe
  
  end of program probe
   
 Time(probe)  user:        0.2  user+sys:        0.2  wallclock:        0.4
  
  start of program grid
  
   grid     grid set  grid #  grid sym
  ------    --------  ------  --------
  coarse        0        0        1
  medium        2        1        1
  fine          0        0        1
  ultrafine     4        2        1
  charge        0        0        1
  gradient      4        2        1
  density       0        0        1
  DFT-fine    -11        3        1
  DFT-med.    -10        4        1
  DFT-grad    -12        5        1
  DFT-der2     -8        6        1
  DFT-cphf     -9        7        1
  LMP2-enrg     4        2        1
  LMP2-grad     2        1        1
  DFT-cphf2   -15        8        1
  PBF-dens      0        0        1
  plotting      0        0        1
  Rel-grad    -17        0        1
  
  number of gridpoints: 
     atom        O1       C3       C5       C7       H5       H6      C10
  grid # 1      123       92       84       87      108      111       94
  grid # 2      515      336      289      289      436      445      338
  grid # 3     4304     4304     4304     4304     4304     4304     4304
[...]
    H5       Y     0.09476   0.11053   0.02122  -0.35119   0.00182   0.12935
    H5       Z    -0.18991  -0.09998  -0.21249  -0.01469  -0.00374   0.01214
    H6       X     0.31734   0.13005   0.25593   0.00104   0.00584   0.00268
    H6       Y     0.16627   0.09431  -0.26828   0.18417  -0.00641   0.00379
    H6       Z    -0.17533  -0.09254  -0.17886   0.00695  -0.00219  -0.00922
    C10      X     0.00948   0.06162  -0.02799  -0.01638  -0.02528  -0.07700
    C10      Y     0.02557  -0.11055   0.04122  -0.01597   0.03245  -0.01696
    C10      Z    -0.03653   0.06259  -0.03330   0.02595  -0.02366   0.00581
    H8       X     0.04497  -0.16272  -0.18533   0.30260  -0.00600   0.06900
    H8       Y     0.07102   0.08261   0.13067  -0.17310  -0.00036   0.13540
    H8       Z     0.03890  -0.11120  -0.13886   0.12366  -0.00113  -0.04047
    H9       X    -0.09336   0.18332   0.21490  -0.22916  -0.01095   0.21853
    H9       Y     0.03340   0.09250  -0.25084   0.07521  -0.01762   0.02797
    H9       Z     0.04125  -0.13866  -0.13452   0.14958   0.00154  -0.04451
    C13      X    -0.00303  -0.02453   0.00526  -0.01585   0.09038  -0.06860
    C13      Y    -0.01313  -0.01169  -0.00195  -0.00236  -0.09019  -0.07555
    C13      Z     0.00720  -0.02606   0.00032   0.01909   0.06771   0.00165
    H11      X     0.16997   0.10694   0.16976   0.29540  -0.00256  -0.06559
    H11      Y     0.01526   0.00107  -0.11116  -0.14335   0.00373  -0.12157
    H11      Z     0.01188  -0.03715  -0.19155  -0.22491   0.00086  -0.01861
    H12      X     0.09311  -0.32920   0.09366   0.01704  -0.37264   0.04031
    H12      Y    -0.10263   0.31047  -0.09019  -0.07888   0.40833  -0.27907
    H12      Z     0.14925  -0.26925   0.10127  -0.17641  -0.26983  -0.33492
    H13      X    -0.13356   0.19362  -0.05960   0.10675  -0.35560   0.10248
    H13      Y     0.03639  -0.24294   0.02283   0.16511   0.36884   0.23563
    H13      Z    -0.08137   0.13968  -0.04383   0.07537  -0.27055   0.06493
    H14      X     0.10662  -0.18309   0.02669   0.05515   0.02384   0.01741
    H14      Y    -0.07514   0.09976  -0.03771   0.10553  -0.02131   0.03143
    H14      Z     0.03998  -0.12275   0.01158   0.06250   0.01454   0.07022
  
  vibration #           13        14        15        16        17        18
                 --------- --------- --------- --------- --------- ---------
  frequencies       965.00    993.91   1011.80   1057.17   1121.74   1189.61
  intensities        13.88     13.39      1.56     22.63     17.05      1.63
  reduc. mass         0.55      0.40      1.27      2.00      0.79      0.58
  force const         0.30      0.24      0.77      1.31      0.58      0.48
    O1       X    -0.00094   0.00140   0.00604   0.02508   0.01235   0.01558
    O1       Y     0.02698   0.00397  -0.00148  -0.01261   0.02325   0.01486
    O1       Z     0.00558  -0.00308  -0.01043   0.00055   0.01344   0.00052
    C3       X     0.06876   0.02023   0.01836  -0.15015  -0.03871  -0.04080
    C3       Y    -0.03619   0.00765   0.03821   0.02094  -0.07096  -0.02114
    C3       Z    -0.04527   0.00678   0.03797  -0.00188  -0.08832  -0.03029
    C5       X    -0.02455   0.00112   0.03227   0.14542   0.02425   0.01595
    C5       Y    -0.09266  -0.05013  -0.11426  -0.01409   0.00747  -0.04012
    C5       Z     0.05731  -0.00182  -0.03348   0.03373   0.09857   0.01038
    C7       X    -0.04504  -0.00239  -0.00176  -0.08039   0.05008  -0.05070
    C7       Y     0.05306   0.05526   0.14447   0.04671   0.02620  -0.02781
    C7       Z    -0.04989   0.00517   0.02159  -0.03429  -0.06401   0.08385
    H5       X    -0.10777  -0.00857   0.03480   0.06861  -0.19035  -0.02554
    H5       Y     0.10828  -0.10176  -0.37211   0.06191  -0.13196  -0.19499
    H5       Z    -0.04407   0.00261   0.02033  -0.03474  -0.04076   0.01096
    H6       X     0.08810  -0.01371  -0.08682   0.17831   0.32204   0.17785
    H6       Y    -0.18350  -0.05741  -0.15534  -0.06527   0.25713   0.49802
    H6       Z    -0.04199   0.00710   0.04156   0.00111  -0.04977   0.02025
    C10      X     0.02987   0.03179  -0.05930   0.04288  -0.06828   0.06966
    C10      Y    -0.00669  -0.05304   0.00735  -0.02974  -0.01923   0.04307
    C10      Z    -0.01319   0.04051   0.00642   0.01240   0.05184  -0.07282
    H8       X     0.15729  -0.00550  -0.07358   0.04142   0.16983  -0.26208
    H8       Y     0.29128   0.01508   0.07452   0.10409  -0.08002  -0.18268
    H8       Z     0.02834   0.01080  -0.01020   0.03417   0.04122  -0.01756
    H9       X    -0.19766   0.06728   0.10419  -0.20091  -0.02830   0.16830
    H9       Y    -0.01321   0.14249   0.30753  -0.15146   0.21639   0.26278
    H9       Z     0.06770  -0.03507  -0.04040   0.03991   0.02931  -0.05381
    C13      X    -0.04345  -0.01101  -0.00785  -0.00364   0.02933  -0.04030
    C13      Y    -0.01463  -0.00932  -0.02351   0.00831   0.01101  -0.02223
    C13      Z     0.03025  -0.00838  -0.01848   0.00710  -0.02428   0.02252
    H11      X    -0.12644   0.03291   0.14914   0.04687  -0.17491  -0.00603
    H11      Y     0.26765   0.03481  -0.03580  -0.29467   0.15788   0.08854
    H11      Z     0.17807   0.00239  -0.08354  -0.22796   0.06778  -0.04257
    H12      X    -0.02534   0.17538  -0.07393  -0.04338  -0.01111   0.01984
    H12      Y    -0.09225  -0.21505   0.04382   0.04971   0.08271  -0.12146
    H12      Z    -0.27348   0.11183  -0.05479  -0.04176   0.11935  -0.13880
    H13      X     0.19778  -0.27624   0.04795   0.04375  -0.08437   0.08163
    H13      Y     0.17057   0.28131  -0.15909   0.01340  -0.14857   0.14245
    H13      Z     0.15763  -0.21304   0.03202   0.03750  -0.07320   0.07317
    H14      X     0.20058  -0.46711   0.02007   0.01355  -0.15906   0.14870
    H14      Y     0.17914   0.42792  -0.30220   0.09991  -0.18070   0.08376
    H14      Z     0.08674  -0.34090   0.09368  -0.02017   0.00480  -0.02236
  
  vibration #           19        20        21        22        23        24
                 --------- --------- --------- --------- --------- ---------
  frequencies      1212.65   1268.75   1287.68   1313.95   1385.63   1411.74
  intensities         1.67      4.18      4.07      5.53      4.80      1.25
  reduc. mass         0.48      0.28      0.57      0.69      0.81      0.32
  force const         0.41      0.27      0.56      0.70      0.92      0.38
    O1       X     0.01022   0.00347  -0.00240  -0.00533  -0.01845  -0.00013
    O1       Y    -0.00455   0.01164   0.00170  -0.00056   0.03980   0.00303
    O1       Z    -0.00550  -0.00527   0.00011  -0.00053  -0.05887  -0.00343
    C3       X    -0.02670   0.00165   0.00385   0.00323   0.05996  -0.00011
    C3       Y     0.03799  -0.01328  -0.00885  -0.00750   0.02548   0.00169
    C3       Z     0.03708  -0.00702  -0.00813  -0.00517   0.02810   0.00428
    C5       X    -0.02357  -0.01044   0.02180   0.05095  -0.00275  -0.01550
    C5       Y    -0.10746  -0.01762   0.03534   0.07944  -0.03862   0.00577
    C5       Z    -0.00716  -0.06078   0.00070   0.01045   0.02353  -0.00282
    C7       X     0.01701   0.01018  -0.02348  -0.04591  -0.00091   0.00876
    C7       Y    -0.06004  -0.00894  -0.01630  -0.11720   0.00441  -0.04088
    C7       Z    -0.01649   0.04531   0.02731  -0.00039   0.00045  -0.00929
    H5       X     0.15043   0.04303  -0.05000  -0.06392  -0.03794   0.12818
    H5       Y     0.56757  -0.33316  -0.19238  -0.23313   0.02361  -0.05224
    H5       Z    -0.00295   0.03653  -0.00447  -0.01417  -0.00812   0.10465
    H6       X     0.04000   0.01406  -0.01944  -0.03848   0.07076   0.13224
    H6       Y     0.26005   0.41988  -0.08596  -0.30608   0.14008  -0.04108
    H6       Z     0.02902   0.01551   0.00260  -0.01185   0.01303  -0.10887
    C10      X    -0.04816  -0.02523  -0.04334   0.00143  -0.00118   0.04463
    C10      Y     0.00302  -0.02982   0.00091  -0.00103   0.00129   0.06683
    C10      Z     0.01045   0.01437   0.05207  -0.03591  -0.00283   0.04023
    H8       X     0.12643   0.06882  -0.05601   0.07628   0.01302  -0.15047
    H8       Y     0.27985   0.62280   0.04996   0.41628  -0.02296   0.17947
    H8       Z    -0.02177  -0.05670  -0.00414  -0.04061   0.01485  -0.14785
    H9       X     0.06828  -0.02290   0.04261   0.07082   0.02544  -0.20524
    H9       Y     0.36902  -0.41907   0.11070   0.49502   0.02618   0.05383
    H9       Z     0.00064   0.01376  -0.00457  -0.01178  -0.01027   0.16608
    C13      X     0.02033   0.01508   0.03298  -0.00278  -0.00087  -0.00153
    C13      Y     0.00559   0.01803  -0.02986   0.01354  -0.00025   0.01943
    C13      Z    -0.01626   0.00461  -0.08382   0.02601   0.00031   0.02995
    H11      X     0.15688  -0.01008  -0.04123  -0.05591  -0.43274  -0.00247
    H11      Y    -0.00585   0.03782  -0.01612  -0.06209  -0.70565  -0.02950
    H11      Z    -0.11717   0.00403   0.02754   0.03815   0.32770   0.00229
    H12      X     0.02279  -0.00792   0.01114   0.00064   0.00064   0.11798
    H12      Y     0.02329   0.06879  -0.00245   0.04000  -0.00099  -0.25656
    H12      Z     0.09254   0.10520  -0.00629   0.11777   0.00370  -0.50502
    H13      X    -0.04757   0.01118  -0.14935   0.08065   0.00455  -0.31579
    H13      Y    -0.04666   0.02758  -0.25797   0.16004   0.00505  -0.38243
    H13      Z    -0.04877   0.00909  -0.17531   0.06944   0.00327  -0.13846
    H14      X     0.04798  -0.04678   0.39779  -0.06779   0.00300  -0.13405
    H14      Y     0.06443   0.00542   0.59062  -0.11118  -0.00525  -0.14883
    H14      Z     0.06500  -0.00188   0.30428  -0.07898   0.00012  -0.06080
  
  vibration #           25        26        27        28        29        30
                 --------- --------- --------- --------- --------- ---------
  frequencies      1421.64   1448.68   1679.94   1780.48   2761.41   2948.65
  intensities         3.63      6.03     11.40    188.04    140.36     19.57
  reduc. mass         0.39      0.39      4.44      6.50      0.93      0.64
  force const         0.46      0.48      7.38     12.14      4.16      3.27
    O1       X     0.00035   0.00093  -0.00042   0.02279   0.00064  -0.00027
    O1       Y     0.00380   0.00073  -0.00163   0.11357   0.00172  -0.00024
    O1       Z    -0.00376  -0.00029   0.00134  -0.09654  -0.00110   0.00014
    C3       X    -0.00166  -0.00221   0.00042  -0.04492  -0.05274   0.00200
    C3       Y     0.00688   0.00176   0.00153  -0.17195   0.00740   0.00059
    C3       Z     0.00857   0.00201  -0.00178   0.13710  -0.05827   0.00123
    C5       X    -0.07466  -0.02190   0.00248   0.00487  -0.00050  -0.01411
    C5       Y     0.01010   0.00585   0.00426   0.01223   0.00184   0.00338
    C5       Z     0.00173  -0.00255   0.00099  -0.00971   0.00205   0.00716
    C7       X     0.01182  -0.08349   0.01649   0.00261   0.00084   0.05848
    C7       Y     0.01066  -0.00580   0.02320   0.00598  -0.00012  -0.01224
    C7       Z     0.00061   0.00285   0.01166  -0.00152   0.00079   0.03146
    H5       X     0.46164   0.12017  -0.00158   0.01680   0.01258   0.11673
    H5       Y    -0.10098  -0.04076  -0.00437   0.03933  -0.00942  -0.02954
    H5       Z     0.38979   0.10395   0.00288   0.00087  -0.02565  -0.16815
    H6       X     0.48730   0.11771   0.00029  -0.04157  -0.00765   0.05474
    H6       Y    -0.15715  -0.03779  -0.01214  -0.06079   0.00434  -0.01703
    H6       Z    -0.39914  -0.10348  -0.00071   0.01466  -0.00917   0.08629
    C10      X    -0.01502   0.01096  -0.06950  -0.00050   0.00038   0.00058
    C10      Y    -0.02371   0.02545  -0.14736  -0.00174  -0.00034  -0.00032
    C10      Z    -0.01232   0.00542  -0.11620  -0.00092   0.00009  -0.00036
    H8       X    -0.09742   0.50697  -0.04555  -0.00105  -0.00388  -0.17535
    H8       Y    -0.04479  -0.02095  -0.06531  -0.01745   0.00074   0.06279
    H8       Z    -0.05605   0.37194  -0.01158   0.00283   0.00678   0.30067
    H9       X    -0.06226   0.43811   0.03352  -0.00091  -0.01127  -0.52910
    H9       Y     0.03614  -0.11745   0.05150   0.00237  -0.00476   0.08995
    H9       Z     0.05931  -0.40692  -0.00362  -0.00419  -0.01373  -0.68363
    C13      X     0.00087   0.00112   0.04378   0.00005  -0.00004   0.00012
    C13      Y    -0.00852   0.01132   0.12442   0.00050  -0.00007  -0.00002
    C13      Z    -0.01293   0.01414   0.11655   0.00084  -0.00001   0.00011
    H11      X     0.02310   0.01471  -0.00145   0.11556   0.62038  -0.01711
    H11      Y    -0.03227   0.00924  -0.00094   0.07810  -0.12334  -0.00081
    H11      Z    -0.01495  -0.01165  -0.00017   0.02111   0.71854  -0.01547
    H12      X    -0.04166   0.03647   0.12682  -0.00039  -0.00051  -0.00415
    H12      Y     0.09082  -0.07592   0.00257   0.00084   0.00086  -0.00287
    H12      Z     0.18313  -0.17055  -0.15496  -0.00158  -0.00074   0.00197
    H13      X     0.11053  -0.09949  -0.17337  -0.00020   0.00017   0.00436
    H13      Y     0.13682  -0.13554  -0.13447  -0.00045  -0.00019   0.00007
    H13      Z     0.04426  -0.03435   0.03666   0.00094   0.00020  -0.00525
    H14      X     0.04955  -0.01202   0.14343   0.00126  -0.00008  -0.00631
    H14      Y     0.06571  -0.05199   0.11692   0.00090   0.00071   0.00362
    H14      Z     0.02402  -0.00486  -0.02343  -0.00026   0.00020   0.00985
  
  vibration #           31        32        33        34        35        36
                 --------- --------- --------- --------- --------- ---------
  frequencies      2954.87   3019.19   3061.16   3068.51   3086.50   3175.67
  intensities        12.50     10.09      9.62     25.82      3.56     14.32
  reduc. mass         0.71      0.68      0.74      0.72      0.46      0.55
  force const         3.64      3.66      4.08      3.97      2.55      3.28
    O1       X     0.00015  -0.00012  -0.00004  -0.00003  -0.00002   0.00001
    O1       Y    -0.00046  -0.00011   0.00055   0.00010  -0.00001   0.00000
    O1       Z     0.00035   0.00005  -0.00065  -0.00006   0.00002   0.00000
    C3       X    -0.00103   0.00025   0.00050   0.00015   0.00010  -0.00004
    C3       Y     0.00014  -0.00033  -0.00143  -0.00027  -0.00005   0.00001
    C3       Z    -0.00244   0.00031   0.00282   0.00024   0.00001  -0.00001
    C5       X     0.05374   0.00893   0.02868   0.00268  -0.00013   0.00001
    C5       Y    -0.01423  -0.00251  -0.00975  -0.00098  -0.00013   0.00001
    C5       Z    -0.04035   0.00923   0.07797   0.00947   0.00034  -0.00001
    C7       X     0.01286   0.02302  -0.00134  -0.00277   0.00034  -0.00018
    C7       Y    -0.00193  -0.00989   0.00142   0.00269   0.00081  -0.00045
    C7       Z     0.01380  -0.07921   0.01308   0.01476   0.00285  -0.00084
    H5       X    -0.51257  -0.01520   0.16274   0.02501   0.00184  -0.00036
    H5       Y     0.12966   0.00715  -0.04115  -0.01017  -0.00105   0.00089
    H5       Z     0.72348   0.02523  -0.20842  -0.03313  -0.00259   0.00064
    H6       X    -0.13330  -0.09494  -0.49117  -0.05500  -0.00146   0.00029
    H6       Y     0.04452   0.02779   0.15762   0.01802   0.00058  -0.00023
    H6       Z    -0.22615  -0.14075  -0.72803  -0.08155  -0.00228   0.00019
    C10      X     0.00035  -0.00710   0.00610  -0.04142  -0.00938   0.00506
    C10      Y     0.00036   0.00048  -0.00102   0.00698   0.00825  -0.00122
    C10      Z     0.00035   0.00920  -0.00919   0.06310   0.02365  -0.00819
    H8       X    -0.00208  -0.46344   0.05972   0.07742   0.00989  -0.00760
    H8       Y     0.00174   0.15996  -0.02324  -0.02587  -0.00547  -0.00081
    H8       Z     0.01140   0.71973  -0.09350  -0.12026  -0.01788   0.00748
    H9       X    -0.14796   0.20004  -0.05012  -0.04368  -0.01341   0.00277
    H9       Y     0.02412  -0.03458   0.01341   0.00559  -0.00004   0.00041
    H9       Z    -0.18665   0.23412  -0.06202  -0.05071  -0.01463   0.00416
    C13      X    -0.00012  -0.00012  -0.00085   0.00714  -0.00438   0.07285
    C13      Y    -0.00017   0.00031  -0.00128   0.01137  -0.04107   0.03491
    C13      Z    -0.00009   0.00052  -0.00070   0.00658  -0.05176  -0.04652
    H11      X     0.01313  -0.00046  -0.01350  -0.00178  -0.00033   0.00014
    H11      Y    -0.00119   0.00093   0.00076   0.00021   0.00024  -0.00006
    H11      Z     0.01318  -0.00204  -0.01422  -0.00133  -0.00020   0.00013
    H12      X    -0.00134  -0.00964   0.02058  -0.18196   0.42629  -0.56932
    H12      Y    -0.00092  -0.00684   0.01614  -0.14579   0.34071  -0.46818
    H12      Z     0.00013   0.00351  -0.00424   0.03407  -0.08110   0.09021
    H13      X     0.00135   0.00716  -0.00967   0.08566  -0.40430  -0.30019
    H13      Y    -0.00000   0.00233   0.00078  -0.01285   0.06980   0.06461
    H13      Z    -0.00082  -0.00645   0.01385  -0.13029   0.62643   0.48307
    H14      X    -0.00318   0.08097  -0.07181   0.50218   0.14201  -0.05099
    H14      Y    -0.00215  -0.01286   0.01065  -0.06645  -0.02140   0.00739
    H14      Z     0.00191  -0.12044   0.10694  -0.73698  -0.21162   0.07576
  
  Number of imaginary frequencies:   0
   
  Writing vibrational animation data to a_try2.vib
  Writing IR vibrational spectrum data to a_try2_vib.spm
  rotational symmetry number:  1

  rotational temperatures (K):      0.700835      0.064784      0.063785
   
  The Quasi-Harmonic approximation will be applied to compute
  vibrational constributions to thermodynamic properties.
  Frequencies will be adjusted to a minimum value of  100.00 cm^-1.

  vibrational temperatures:
       mode:      1        2        3        4        5        6
  temp. (K):   143.88   143.88   151.09   321.00   483.59   603.85
   
       mode:      7        8        9       10       11       12
  temp. (K):   701.20   910.48  1079.98  1186.13  1292.02  1320.64
   
       mode:     13       14       15       16       17       18
  temp. (K):  1388.41  1430.02  1455.75  1521.03  1613.93  1711.59
   
       mode:     19       20       21       22       23       24
  temp. (K):  1744.74  1825.45  1852.68  1890.48  1993.61  2031.18
   
       mode:     25       26       27       28       29       30
  temp. (K):  2045.42  2084.32  2417.05  2561.72  3973.05  4242.45
   
       mode:     31       32       33       34       35       36
  temp. (K):  4251.40  4343.93  4404.32  4414.89  4440.78  4569.08
   
   
  Thermodynamic properties calculated assuming an ideal gas

  In the table below, the units for temperature
  are kelvins, the units for U, H, and G are
  kcal/mol and the units for Cv and S are cal/(mol K)

  The zero point energy (ZPE):     72.081 kcal/mol
  is not included in U, H, or G in the table below
  
 
  =============================================================================
  Thermodynamic properties for P = 1.00E+00 atm, calculated at   1 temperatures


  T =   298.15 K, P = 1.00E+00 atm
   
                  U         Cv          S          H          G        ln(Q)
              =========  =========  =========  =========  =========  =========
  trans.          0.889      2.981     39.200      1.481    -10.206   17.22638
  rot.            0.889      2.981     26.909      0.889     -7.134   12.04097
  vib.            2.699     18.330     16.791      2.699     -2.307    3.89351
  elec.           0.000      0.000      0.000      0.000      0.000    0.00000
  ----------------------------------------------------------------------------
  total           4.477     24.292     82.900      5.069    -19.647   33.16086
   
   Total internal energy, Utot(SCFE + ZPE + U):    -270.075033 hartrees
   Total enthalpy, Htot (Utot + nRT), with n=1:    -270.074089 hartrees
    Total Gibbs free energy, Gtot (Htot - T*S):    -270.113477 hartrees
   
  end of program freq
   
 Time(freq)  user:        2.6  user+sys:        2.6  wallclock:        3.1

 Total cpu seconds     user:     206.235   user+sys:     206.235
  
 Total elapsed time:    366 seconds

Job a_try2 completed on hpc-90-30.cm.cluster at Wed Apr 19 12:45:22 2023
