Command:  /central/groups/wag/programs/Schrodinger_2022_3/jaguar run -TMPDIR /central/scratch/musgrave -WAIT -PARALLEL 1 a_try2.in
Release:  2022-3
Build:    /central/groups/wag/programs/Schrodinger_2022_3
Host:     hpc-90-30.cm.cluster
JobId:    hpc-90-30-0-64404360
JobDir:   /central/scratch/musgrave/pkozlows/a_try2
Date:     Wed Apr 19 12:39:16 2023

Contents of /central/scratch/musgrave/pkozlows/a_try2:
/central/scratch/musgrave/pkozlows/a_try2/.write_dir.json
/central/scratch/musgrave/pkozlows/a_try2/hpc-90-30-0-64404360
/central/scratch/musgrave/pkozlows/a_try2/a_try2.log
/central/scratch/musgrave/pkozlows/a_try2/a_try2.in
/central/scratch/musgrave/pkozlows/a_try2/a_try2.recover
/central/scratch/musgrave/pkozlows/a_try2/hpc-90-30-0-64404360.recover
/central/scratch/musgrave/pkozlows/a_try2/hpc-90-30-0-64404360.mpinodes

Executing subprocess:
/central/groups/wag/programs/Schrodinger_2022_3/jaguar-v11.7/bin/Linux-x86_64/jexec a_try2.in -out /central/scratch/musgrave/pkozlows/a_try2 -cwd

datadir=/central/groups/wag/programs/Schrodinger_2022_3/jaguar-v11.7/data
Job a_try2 started on hpc-90-30.cm.cluster at Wed Apr 19 12:39:16 2023
jobid: hpc-90-30-0-64404360 
Jaguar version 11.7, release 121
Molecular Point Group: C1      
Point Group used: C1
pre (input checking) done.
onee (1-electron integrals) done.
hfig (HF initial guess) done.
probe (project orbitals) done.
grid (grid generation) done.
rwr (Q operators) done.
scf type: DFT=PBE(X+LC)+PW91 (PBE-D3)
  
       i  u  d  i  g
       t  p  i  c  r                                 RMS    maximum
       e  d  i  u  i                       energy  density   DIIS  
       r  t  s  t  d       total energy    change  change    error 
  
etot    1  N  N  5  M    -269.26931035434           1.1E-02  1.8E-01
etot    2  Y  Y  6  M    -269.28484197876  1.6E-02  1.1E-02  1.5E-01
etot    3  N  Y  2  U    -268.90684945795 -3.8E-01  9.1E-03  2.1E-01
etot    4  N  Y  2  U    -270.07304413686  1.2E+00  4.3E-03  4.2E-02
etot    5  Y  Y  6  M    -270.13470993135  6.2E-02  1.7E-03  4.3E-02
etot    6  N  Y  2  U    -270.18544937069  5.1E-02  5.4E-04  6.2E-03
etot    7  Y  Y  6  M    -270.18663569817  1.2E-03  2.8E-04  5.8E-03
etot    8  Y  Y  6  M    -270.18782078966  1.2E-03  9.0E-05  1.5E-03
etot    9  Y  Y  6  M    -270.18793260814  1.1E-04  2.1E-05  3.4E-04
etot   10  N  Y  2  U    -270.18796232406  3.0E-05  8.6E-06  1.2E-04
etot   11  N  Y  2  U    -270.18796274444  4.2E-07  4.7E-06  2.1E-05
etot   12  N  N  2  U    -270.18796276491  2.0E-08  0.0E+00  0.0E+00
scf (DFT) done.
der1a (1-e 1st deriv.) done.
rwr (1st deriv. Q) done.
der1b (2-e 1st deriv.) done.
  Geometry optimization step   1
  Total energy:      -270.19243939974 hartrees
  gradient maximum:        3.0457E-03 .  (  4.5000E-04 )
  gradient rms:            8.3886E-04 .  (  3.0000E-04 )
  displacement maximum:    2.6204E-02 .  (  1.8000E-03 )
  displacement rms:        7.2218E-03 .  (  1.2000E-03 )
  
  predicted energy change: -5.3068E-05
  step size:     0.04333
  trust radius:  0.30000
---------------- geometry iteration   1 complete ----------------
geopt (optimize geometry) done.
onee (1-electron integrals) done.
probe (project orbitals) done.
grid (grid generation) done.
rwr (Q operators) done.
  
       i  u  d  i  g
       t  p  i  c  r                                 RMS    maximum
       e  d  i  u  i                       energy  density   DIIS  
       r  t  s  t  d       total energy    change  change    error 
  
etot    1  N  N  2  U    -270.18767623151           2.4E-04  1.9E-03
etot    2  Y  Y  6  M    -270.18803903475  3.6E-04  4.0E-05  3.9E-04
etot    3  N  Y  2  U    -270.18804004461  1.0E-06  2.9E-05  6.9E-04
etot    4  N  Y  2  U    -270.18804638296  6.3E-06  1.1E-05  3.5E-04
etot    5  N  Y  2  U    -270.18804864851  2.3E-06  1.3E-06  1.2E-05
etot    6  N  N  2  U    -270.18804865404  5.5E-09  0.0E+00  0.0E+00
scf (DFT) done.
der1a (1-e 1st deriv.) done.
rwr (1st deriv. Q) done.
der1b (2-e 1st deriv.) done.
  Geometry optimization step   2
  Total energy:      -270.19252432682 hartrees
  energy change:          -8.4927E-05 .  (  5.0000E-05 )
  gradient maximum:        1.2630E-03 .  (  4.5000E-04 )
  gradient rms:            4.3417E-04 .  (  3.0000E-04 )
  displacement maximum:    1.1697E-01 .  (  1.8000E-03 )
  displacement rms:        2.8230E-02 .  (  1.2000E-03 )
  
  predicted energy change: -1.4067E-04
  step size:     0.16938
  trust radius:  0.30000
---------------- geometry iteration   2 complete ----------------
geopt (optimize geometry) done.
onee (1-electron integrals) done.
probe (project orbitals) done.
grid (grid generation) done.
rwr (Q operators) done.
  
       i  u  d  i  g
       t  p  i  c  r                                 RMS    maximum
       e  d  i  u  i                       energy  density   DIIS  
       r  t  s  t  d       total energy    change  change    error 
  
etot    1  N  N  2  U    -270.17821332671           1.2E-03  9.9E-03
etot    2  Y  Y  6  M    -270.18806097533  9.8E-03  2.6E-04  2.3E-03
etot    3  N  Y  2  U    -270.18771274311 -3.5E-04  2.0E-04  5.5E-03
etot    4  Y  Y  6  M    -270.18819454483  4.8E-04  5.8E-05  1.6E-03
etot    5  Y  Y  6  M    -270.18825586550  6.1E-05  1.1E-05  1.6E-04
etot    6  N  Y  2  U    -270.18827284656  1.7E-05  5.0E-06  7.6E-05
etot    7  N  Y  2  U    -270.18827310576  2.6E-07  2.3E-06  3.0E-05
etot    8  N  N  2  U    -270.18827315198  4.6E-08  0.0E+00  0.0E+00
scf (DFT) done.
der1a (1-e 1st deriv.) done.
rwr (1st deriv. Q) done.
der1b (2-e 1st deriv.) done.
  Geometry optimization step   3
  Total energy:      -270.19274393084 hartrees
  energy change:          -2.1960E-04 .  (  5.0000E-05 )
  gradient maximum:        2.0342E-03 .  (  4.5000E-04 )
  gradient rms:            6.7687E-04 .  (  3.0000E-04 )
  displacement maximum:    2.0367E-01 .  (  1.8000E-03 )
  displacement rms:        4.2031E-02 .  (  1.2000E-03 )
  
  predicted energy change: -1.7285E-04
  step size:     0.25219
  trust radius:  0.30000
---------------- geometry iteration   3 complete ----------------
geopt (optimize geometry) done.
onee (1-electron integrals) done.
probe (project orbitals) done.
grid (grid generation) done.
rwr (Q operators) done.
  
       i  u  d  i  g
       t  p  i  c  r                                 RMS    maximum
       e  d  i  u  i                       energy  density   DIIS  
       r  t  s  t  d       total energy    change  change    error 
  
etot    1  N  N  2  U    -270.16074590475           1.9E-03  1.6E-02
etot    2  Y  Y  6  M    -270.18757845526  2.7E-02  5.7E-04  5.4E-03
etot    3  N  Y  2  U    -270.18504307283 -2.5E-03  4.4E-04  1.3E-02
etot    4  Y  Y  6  M    -270.18826685141  3.2E-03  8.9E-05  2.0E-03
etot    5  Y  Y  6  M    -270.18838240497  1.2E-04  2.2E-05  3.4E-04
etot    6  N  Y  2  U    -270.18844238516  6.0E-05  9.8E-06  1.5E-04
etot    7  N  Y  2  U    -270.18844329682  9.1E-07  4.5E-06  7.0E-05
etot    8  N  N  2  U    -270.18844346504  1.7E-07  0.0E+00  0.0E+00
scf (DFT) done.
der1a (1-e 1st deriv.) done.
rwr (1st deriv. Q) done.
der1b (2-e 1st deriv.) done.
  Geometry optimization step   4
  Total energy:      -270.19290929102 hartrees
  energy change:          -1.6536E-04 .  (  5.0000E-05 )
  gradient maximum:        6.0513E-03 .  (  4.5000E-04 )
  gradient rms:            1.6605E-03 .  (  3.0000E-04 )
  displacement maximum:    2.0012E-02 .  (  1.8000E-03 )
  displacement rms:        7.3916E-03 .  (  1.2000E-03 )
  
  predicted energy change: -1.0093E-04
  step size:     0.04435
  trust radius:  0.30000
---------------- geometry iteration   4 complete ----------------
geopt (optimize geometry) done.
onee (1-electron integrals) done.
probe (project orbitals) done.
grid (grid generation) done.
rwr (Q operators) done.
  
       i  u  d  i  g
       t  p  i  c  r                                 RMS    maximum
       e  d  i  u  i                       energy  density   DIIS  
       r  t  s  t  d       total energy    change  change    error 
  
etot    1  N  N  2  U    -270.18818042000           2.1E-04  1.9E-03
etot    2  Y  Y  6  M    -270.18861379749  4.3E-04  2.8E-05  5.1E-04
etot    3  N  Y  2  U    -270.18860612749 -7.7E-06  2.0E-05  2.9E-04
etot    4  N  Y  2  U    -270.18860762520  1.5E-06  9.9E-06  2.0E-04
etot    5  N  Y  2  U    -270.18860963019  2.0E-06  1.7E-06  3.4E-05
etot    6  N  N  2  U    -270.18860965692  2.7E-08  0.0E+00  0.0E+00
scf (DFT) done.
der1a (1-e 1st deriv.) done.
rwr (1st deriv. Q) done.
der1b (2-e 1st deriv.) done.
  Geometry optimization step   5
  Total energy:      -270.19307904646 hartrees
  energy change:          -1.6976E-04 .  (  5.0000E-05 )
  gradient maximum:        4.0075E-03 .  (  4.5000E-04 )
  gradient rms:            1.1492E-03 .  (  3.0000E-04 )
  displacement maximum:    2.0789E-01 .  (  1.8000E-03 )
  displacement rms:        5.0003E-02 .  (  1.2000E-03 )
  
  predicted energy change: -5.4022E-04
  step size:     0.30002
  trust radius:  0.30000
---------------- geometry iteration   5 complete ----------------
geopt (optimize geometry) done.
onee (1-electron integrals) done.
probe (project orbitals) done.
grid (grid generation) done.
rwr (Q operators) done.
  
       i  u  d  i  g
       t  p  i  c  r                                 RMS    maximum
       e  d  i  u  i                       energy  density   DIIS  
       r  t  s  t  d       total energy    change  change    error 
  
etot    1  N  N  2  U    -270.15314111242           2.0E-03  1.7E-02
etot    2  Y  Y  6  M    -270.18823374026  3.5E-02  5.9E-04  6.2E-03
etot    3  N  Y  2  U    -270.18542335424 -2.8E-03  4.7E-04  1.4E-02
etot    4  Y  Y  6  M    -270.18897276374  3.5E-03  9.4E-05  2.4E-03
etot    5  Y  Y  6  M    -270.18912862621  1.6E-04  2.1E-05  2.8E-04
etot    6  N  Y  2  U    -270.18920045543  7.2E-05  9.8E-06  1.4E-04
etot    7  N  Y  2  U    -270.18920132436  8.7E-07  4.8E-06  7.9E-05
etot    8  N  N  2  U    -270.18920148060  1.6E-07  0.0E+00  0.0E+00
scf (DFT) done.
der1a (1-e 1st deriv.) done.
rwr (1st deriv. Q) done.
der1b (2-e 1st deriv.) done.
  Geometry optimization step   6
  Total energy:      -270.19368812720 hartrees
  energy change:          -6.0908E-04 .  (  5.0000E-05 )
  gradient maximum:        2.6215E-03 .  (  4.5000E-04 )
  gradient rms:            9.1909E-04 .  (  3.0000E-04 )
  displacement maximum:    1.7459E-01 .  (  1.8000E-03 )
  displacement rms:        5.0001E-02 .  (  1.2000E-03 )
  
  predicted energy change: -4.7861E-04
  step size:     0.30001
  trust radius:  0.30000
---------------- geometry iteration   6 complete ----------------
geopt (optimize geometry) done.
onee (1-electron integrals) done.
probe (project orbitals) done.
grid (grid generation) done.
rwr (Q operators) done.
  
       i  u  d  i  g
       t  p  i  c  r                                 RMS    maximum
       e  d  i  u  i                       energy  density   DIIS  
       r  t  s  t  d       total energy    change  change    error 
  
etot    1  N  N  2  U    -270.15706881068           1.9E-03  1.7E-02
etot    2  Y  Y  6  M    -270.18912184083  3.2E-02  4.8E-04  5.1E-03
etot    3  N  Y  2  U    -270.18740728307 -1.7E-03  3.9E-04  1.2E-02
etot    4  Y  Y  6  M    -270.18961248229  2.2E-03  9.2E-05  2.5E-03
etot    5  Y  Y  6  M    -270.18976334466  1.5E-04  2.0E-05  2.8E-04
etot    6  N  Y  2  U    -270.18982392849  6.1E-05  8.7E-06  1.2E-04
etot    7  N  Y  2  U    -270.18982457739  6.5E-07  4.4E-06  6.3E-05
etot    8  N  N  2  U    -270.18982472747  1.5E-07  0.0E+00  0.0E+00
scf (DFT) done.
der1a (1-e 1st deriv.) done.
rwr (1st deriv. Q) done.
der1b (2-e 1st deriv.) done.
  Geometry optimization step   7
  Total energy:      -270.19432797899 hartrees
  energy change:          -6.3985E-04 .  (  5.0000E-05 )
  gradient maximum:        5.0083E-03 .  (  4.5000E-04 )
  gradient rms:            1.6603E-03 .  (  3.0000E-04 )
  displacement maximum:    1.3908E-01 .  (  1.8000E-03 )
  displacement rms:        5.0087E-02 .  (  1.2000E-03 )
  
  predicted energy change: -1.1542E-02
  step size:     0.30052
  trust radius:  0.30000
---------------- geometry iteration   7 complete ----------------
geopt (optimize geometry) done.
onee (1-electron integrals) done.
probe (project orbitals) done.
grid (grid generation) done.
rwr (Q operators) done.
  
       i  u  d  i  g
       t  p  i  c  r                                 RMS    maximum
       e  d  i  u  i                       energy  density   DIIS  
       r  t  s  t  d       total energy    change  change    error 
  
etot    1  N  N  2  U    -270.17741938015           9.6E-04  8.2E-03
etot    2  Y  Y  6  M    -270.18424517585  6.8E-03  3.5E-04  2.0E-03
etot    3  N  Y  2  U    -270.18317249457 -1.1E-03  2.6E-04  6.2E-03
etot    4  Y  Y  6  M    -270.18442961799  1.3E-03  4.5E-05  8.2E-04
etot    5  N  Y  2  U    -270.18448447839  5.5E-05  1.3E-05  1.3E-04
etot    6  N  Y  2  U    -270.18448596942  1.5E-06  4.8E-06  7.5E-05
etot    7  N  N  2  U    -270.18448619126  2.2E-07  0.0E+00  0.0E+00
scf (DFT) done.
der1a (1-e 1st deriv.) done.
rwr (1st deriv. Q) done.
der1b (2-e 1st deriv.) done.
  Geometry optimization step   8
  Total energy:      -270.18897800419 hartrees
  ** restarting optimization from step    7 **
  energy change:           5.3500E-03 .  (  5.0000E-05 )
  gradient maximum:        5.0083E-03 .  (  4.5000E-04 )
  gradient rms:            1.6603E-03 .  (  3.0000E-04 )
  displacement maximum:    1.9162E-01 .  (  1.8000E-03 )
  displacement rms:        5.0075E-02 .  (  1.2000E-03 )
  
  predicted energy change: -1.0005E-03
  step size:     0.30045
  trust radius:  0.30000
---------------- geometry iteration   8 complete ----------------
geopt (optimize geometry) done.
onee (1-electron integrals) done.
probe (project orbitals) done.
grid (grid generation) done.
rwr (Q operators) done.
  
       i  u  d  i  g
       t  p  i  c  r                                 RMS    maximum
       e  d  i  u  i                       energy  density   DIIS  
       r  t  s  t  d       total energy    change  change    error 
  
etot    1  N  N  2  U    -270.15706083847           2.0E-03  1.7E-02
etot    2  Y  Y  6  M    -270.19027749999  3.3E-02  3.2E-04  4.0E-03
etot    3  N  Y  2  U    -270.19008855279 -1.9E-04  2.6E-04  4.4E-03
etot    4  Y  Y  6  M    -270.19056657801  4.8E-04  1.0E-04  2.5E-03
etot    5  Y  Y  6  M    -270.19079478591  2.3E-04  2.3E-05  4.2E-04
etot    6  N  Y  2  U    -270.19082111654  2.6E-05  9.1E-06  1.5E-04
etot    7  N  Y  2  U    -270.19082197792  8.6E-07  4.0E-06  4.5E-05
etot    8  N  N  2  U    -270.19082213556  1.6E-07  0.0E+00  0.0E+00
scf (DFT) done.
der1a (1-e 1st deriv.) done.
rwr (1st deriv. Q) done.
der1b (2-e 1st deriv.) done.
  Geometry optimization step   9
  Total energy:      -270.19534412764 hartrees
  energy change:          -1.0161E-03 .  (  5.0000E-05 )
  gradient maximum:        2.9351E-03 .  (  4.5000E-04 )
  gradient rms:            1.1335E-03 .  (  3.0000E-04 )
  displacement maximum:    1.8585E-01 .  (  1.8000E-03 )
  displacement rms:        5.0096E-02 .  (  1.2000E-03 )
  
  predicted energy change: -7.1557E-04
  step size:     0.30058
  trust radius:  0.30000
---------------- geometry iteration   9 complete ----------------
geopt (optimize geometry) done.
onee (1-electron integrals) done.
probe (project orbitals) done.
grid (grid generation) done.
rwr (Q operators) done.
  
       i  u  d  i  g
       t  p  i  c  r                                 RMS    maximum
       e  d  i  u  i                       energy  density   DIIS  
       r  t  s  t  d       total energy    change  change    error 
  
etot    1  N  N  2  U    -270.16300186766           1.8E-03  1.6E-02
etot    2  Y  Y  6  M    -270.19093411851  2.8E-02  3.4E-04  3.7E-03
etot    3  N  Y  2  U    -270.19026375557 -6.7E-04  2.9E-04  7.9E-03
etot    4  Y  Y  6  M    -270.19120361213  9.4E-04  9.1E-05  2.4E-03
etot    5  Y  Y  6  M    -270.19135930900  1.6E-04  1.7E-05  1.8E-04
etot    6  N  Y  2  U    -270.19140229622  4.3E-05  7.1E-06  8.3E-05
etot    7  N  Y  2  U    -270.19140257400  2.8E-07  4.0E-06  5.1E-05
etot    8  N  N  2  U    -270.19140270208  1.3E-07  0.0E+00  0.0E+00
scf (DFT) done.
der1a (1-e 1st deriv.) done.
rwr (1st deriv. Q) done.
der1b (2-e 1st deriv.) done.
  Geometry optimization step  10
  Total energy:      -270.19595333040 hartrees
  energy change:          -6.0920E-04 .  (  5.0000E-05 )
  gradient maximum:        2.9771E-03 .  (  4.5000E-04 )
  gradient rms:            1.3006E-03 .  (  3.0000E-04 )
  displacement maximum:    1.8108E-01 .  (  1.8000E-03 )
  displacement rms:        5.0059E-02 .  (  1.2000E-03 )
  
  predicted energy change: -1.0153E-03
  step size:     0.30035
  trust radius:  0.30000
---------------- geometry iteration  10 complete ----------------
geopt (optimize geometry) done.
onee (1-electron integrals) done.
probe (project orbitals) done.
grid (grid generation) done.
rwr (Q operators) done.
  
       i  u  d  i  g
       t  p  i  c  r                                 RMS    maximum
       e  d  i  u  i                       energy  density   DIIS  
       r  t  s  t  d       total energy    change  change    error 
  
etot    1  N  N  2  U    -270.18018331523           1.2E-03  1.1E-02
etot    2  Y  Y  6  M    -270.19177541375  1.2E-02  1.9E-04  1.3E-03
etot    3  N  Y  2  U    -270.19162775034 -1.5E-04  1.4E-04  2.6E-03
etot    4  Y  Y  6  M    -270.19174334793  1.2E-04  5.4E-05  1.8E-03
etot    5  Y  Y  6  M    -270.19180359443  6.0E-05  9.5E-06  1.3E-04
etot    6  N  Y  2  U    -270.19181309832  9.5E-06  3.3E-06  2.2E-05
etot    7  N  N  2  U    -270.19181313222  3.4E-08  0.0E+00  0.0E+00
scf (DFT) done.
der1a (1-e 1st deriv.) done.
rwr (1st deriv. Q) done.
der1b (2-e 1st deriv.) done.
  Geometry optimization step  11
  Total energy:      -270.19637066677 hartrees
  energy change:          -4.1734E-04 .  (  5.0000E-05 )
  gradient maximum:        9.8332E-03 .  (  4.5000E-04 )
  gradient rms:            3.0208E-03 .  (  3.0000E-04 )
  displacement maximum:    1.3245E-01 .  (  1.8000E-03 )
  displacement rms:        3.2474E-02 .  (  1.2000E-03 )
  
  predicted energy change: -4.2125E-04
  step size:     0.19484
  trust radius:  0.30000
---------------- geometry iteration  11 complete ----------------
geopt (optimize geometry) done.
onee (1-electron integrals) done.
probe (project orbitals) done.
grid (grid generation) done.
rwr (Q operators) done.
  
       i  u  d  i  g
       t  p  i  c  r                                 RMS    maximum
       e  d  i  u  i                       energy  density   DIIS  
       r  t  s  t  d       total energy    change  change    error 
  
etot    1  N  N  2  U    -270.18322780203           1.0E-03  1.0E-02
etot    2  Y  Y  6  M    -270.19213206147  8.9E-03  1.4E-04  1.5E-03
etot    3  N  Y  2  U    -270.19211986068 -1.2E-05  9.8E-05  1.9E-03
etot    4  Y  Y  6  M    -270.19215547683  3.6E-05  4.9E-05  1.5E-03
etot    5  N  Y  2  U    -270.19221525843  6.0E-05  1.2E-05  2.1E-04
etot    6  N  Y  2  U    -270.19221714241  1.9E-06  3.1E-06  2.1E-05
etot    7  N  N  2  U    -270.19221716720  2.5E-08  0.0E+00  0.0E+00
scf (DFT) done.
der1a (1-e 1st deriv.) done.
rwr (1st deriv. Q) done.
der1b (2-e 1st deriv.) done.
  Geometry optimization step  12
  Total energy:      -270.19679684298 hartrees
  energy change:          -4.2618E-04 .  (  5.0000E-05 )
  gradient maximum:        1.9858E-03 .  (  4.5000E-04 )
  gradient rms:            8.7496E-04 .  (  3.0000E-04 )
  displacement maximum:    1.0539E-01 .  (  1.8000E-03 )
  displacement rms:        2.0003E-02 .  (  1.2000E-03 )
  
  predicted energy change: -1.0637E-04
  step size:     0.12002
  trust radius:  0.30000
---------------- geometry iteration  12 complete ----------------
geopt (optimize geometry) done.
onee (1-electron integrals) done.
probe (project orbitals) done.
grid (grid generation) done.
rwr (Q operators) done.
  
       i  u  d  i  g
       t  p  i  c  r                                 RMS    maximum
       e  d  i  u  i                       energy  density   DIIS  
       r  t  s  t  d       total energy    change  change    error 
  
etot    1  N  N  2  U    -270.18597273061           8.7E-04  1.0E-02
etot    2  Y  Y  6  M    -270.19223289177  6.3E-03  1.8E-04  2.2E-03
etot    3  N  Y  2  U    -270.19210408061 -1.3E-04  1.5E-04  3.5E-03
etot    4  Y  Y  6  M    -270.19229513534  1.9E-04  5.3E-05  1.8E-03
etot    5  Y  Y  6  M    -270.19235897719  6.4E-05  6.3E-06  7.3E-05
etot    6  N  Y  2  U    -270.19236967790  1.1E-05  2.5E-06  4.0E-05
etot    7  N  N  2  U    -270.19236971304  3.5E-08  0.0E+00  0.0E+00
scf (DFT) done.
der1a (1-e 1st deriv.) done.
rwr (1st deriv. Q) done.
der1b (2-e 1st deriv.) done.
  Geometry optimization step  13
  Total energy:      -270.19693443354 hartrees
  energy change:          -1.3759E-04 .  (  5.0000E-05 )
  gradient maximum:        1.8572E-03 .  (  4.5000E-04 )
  gradient rms:            5.4416E-04 .  (  3.0000E-04 )
  displacement maximum:    1.1857E-01 .  (  1.8000E-03 )
  displacement rms:        2.1635E-02 .  (  1.2000E-03 )
  
  predicted energy change: -6.8192E-05
  step size:     0.12981
  trust radius:  0.30000
---------------- geometry iteration  13 complete ----------------
geopt (optimize geometry) done.
onee (1-electron integrals) done.
probe (project orbitals) done.
grid (grid generation) done.
rwr (Q operators) done.
  
       i  u  d  i  g
       t  p  i  c  r                                 RMS    maximum
       e  d  i  u  i                       energy  density   DIIS  
       r  t  s  t  d       total energy    change  change    error 
  
etot    1  N  N  2  U    -270.18616409663           8.6E-04  1.0E-02
etot    2  Y  Y  6  M    -270.19232080822  6.2E-03  1.7E-04  2.2E-03
etot    3  N  Y  2  U    -270.19227995863 -4.1E-05  1.4E-04  2.7E-03
etot    4  Y  Y  6  M    -270.19237987397  1.0E-04  5.8E-05  1.9E-03
etot    5  Y  Y  6  M    -270.19245320286  7.3E-05  7.6E-06  1.0E-04
etot    6  N  Y  2  U    -270.19246318051  1.0E-05  2.4E-06  2.9E-05
etot    7  N  N  2  U    -270.19246320633  2.6E-08  0.0E+00  0.0E+00
scf (DFT) done.
der1a (1-e 1st deriv.) done.
rwr (1st deriv. Q) done.
der1b (2-e 1st deriv.) done.
  Geometry optimization step  14
  Total energy:      -270.19701913949 hartrees
  energy change:          -8.4706E-05 .  (  5.0000E-05 )
  gradient maximum:        9.4173E-04 .  (  4.5000E-04 )
  gradient rms:            3.2613E-04 .  (  3.0000E-04 )
  displacement maximum:    2.9438E-02 .  (  1.8000E-03 )
  displacement rms:        5.7014E-03 .  (  1.2000E-03 )
  
  predicted energy change: -9.6618E-06
  step size:     0.03421
  trust radius:  0.30000
---------------- geometry iteration  14 complete ----------------
geopt (optimize geometry) done.
onee (1-electron integrals) done.
probe (project orbitals) done.
grid (grid generation) done.
rwr (Q operators) done.
  
       i  u  d  i  g
       t  p  i  c  r                                 RMS    maximum
       e  d  i  u  i                       energy  density   DIIS  
       r  t  s  t  d       total energy    change  change    error 
  
etot    1  N  N  2  U    -270.19209023072           2.1E-04  2.3E-03
etot    2  Y  Y  6  M    -270.19247663413  3.9E-04  3.3E-05  5.3E-04
etot    3  N  Y  2  U    -270.19247734474  7.1E-07  2.2E-05  3.1E-04
etot    4  N  Y  2  U    -270.19247888083  1.5E-06  1.1E-05  3.2E-04
etot    5  N  Y  2  U    -270.19248115277  2.3E-06  1.9E-06  3.5E-05
etot    6  N  N  2  U    -270.19248121586  6.3E-08  0.0E+00  0.0E+00
scf (DFT) done.
der1a (1-e 1st deriv.) done.
rwr (1st deriv. Q) done.
der1b (2-e 1st deriv.) done.
  Geometry optimization step  15
  Total energy:      -270.19703413854 hartrees
  energy change:          -1.4999E-05 *  (  5.0000E-05 )
  gradient maximum:        4.3191E-04 *  (  4.5000E-04 )
  gradient rms:            1.1926E-04 *  (  3.0000E-04 )
  displacement maximum:    5.3769E-03 .  (  1.8000E-03 )
  displacement rms:        1.3103E-03 .  (  1.2000E-03 )
  
  predicted energy change: -1.3909E-06
  step size:     0.00786
  trust radius:  0.30000
---------------- geometry iteration  15 complete ----------------
geopt (optimize geometry) done.
onee (1-electron integrals) done.
probe (project orbitals) done.
grid (grid generation) done.
rwr (Q operators) done.
  
       i  u  d  i  g
       t  p  i  c  r                                 RMS    maximum
       e  d  i  u  i                       energy  density   DIIS  
       r  t  s  t  d       total energy    change  change    error 
  
etot    1  N  N  2  U    -270.19246940203           4.2E-05  4.3E-04
etot    2  N  Y  2  U    -270.19248391419  1.5E-05  6.3E-06  9.5E-05
etot    3  N  Y  2  U    -270.19248398827  7.4E-08  3.8E-06  5.1E-05
etot    4  N  N  2  U    -270.19248406770  7.9E-08  0.0E+00  0.0E+00
scf (DFT) done.
der1a (1-e 1st deriv.) done.
rwr (1st deriv. Q) done.
der1b (2-e 1st deriv.) done.
  Geometry optimization step  16
  Total energy:      -270.19703568727 hartrees
  energy change:          -1.5487E-06 #  (  5.0000E-05 )
  gradient maximum:        9.2594E-05 *  (  4.5000E-04 )
  gradient rms:            3.2923E-05 #  (  3.0000E-04 )
  displacement maximum:    3.3548E-03 .  (  1.8000E-03 )
  displacement rms:        6.9983E-04 *  (  1.2000E-03 )
  
  predicted energy change: -1.5499E-07
  step size:     0.00420
  trust radius:  0.30000
------------- final geometry iteration  16 complete -------------
geopt (optimize geometry) done.
cutabab2 (abab integrals) done.
der2a (1-e JK-1st deriv.) done.
der2b (2-e JK-1st deriv.) done.
der2nda (1-e 2nd deriv.) done.
der2ndb (2-e 2nd deriv.) done.
rwr (Q operators) done.
cphfa (gradient of wave function) done.
freq (vib. frequencies) done.
Job a_try2 completed on hpc-90-30.cm.cluster at Wed Apr 19 12:45:22 2023
Timer (jaguar_backend.py) : 366.80 secs (0 hrs, 06 mins, 06 secs)
Finished:   Wed Apr 19 12:45:22 2023
