Command:  /central/groups/wag/programs/Schrodinger_2022_3/jaguar run -TMPDIR /central/scratch/musgrave -WAIT -PARALLEL 1 e2.in
Release:  2022-3
Build:    /central/groups/wag/programs/Schrodinger_2022_3
Host:     hpc-24-11.cm.cluster
JobId:    hpc-24-11-0-64404952
JobDir:   /central/scratch/musgrave/pkozlows/e2
Date:     Wed Apr 19 13:04:38 2023

Contents of /central/scratch/musgrave/pkozlows/e2:
/central/scratch/musgrave/pkozlows/e2/.write_dir.json
/central/scratch/musgrave/pkozlows/e2/e2.in
/central/scratch/musgrave/pkozlows/e2/hpc-24-11-0-64404952
/central/scratch/musgrave/pkozlows/e2/hpc-24-11-0-64404952.recover
/central/scratch/musgrave/pkozlows/e2/hpc-24-11-0-64404952.mpinodes
/central/scratch/musgrave/pkozlows/e2/e2.recover
/central/scratch/musgrave/pkozlows/e2/e2.log

Executing subprocess:
/central/groups/wag/programs/Schrodinger_2022_3/jaguar-v11.7/bin/Linux-x86_64/jexec e2.in -out /central/scratch/musgrave/pkozlows/e2 -cwd

datadir=/central/groups/wag/programs/Schrodinger_2022_3/jaguar-v11.7/data
Job e2 started on hpc-24-11.cm.cluster at Wed Apr 19 13:04:38 2023
jobid: hpc-24-11-0-64404952 
Jaguar version 11.7, release 121
Molecular Point Group: C1      
Point Group used: C1
pre (input checking) done.
onee (1-electron integrals) done.
hfig (HF initial guess) done.
probe (project orbitals) done.
grid (grid generation) done.
rwr (Q operators) done.
scf type: DFT=PBE(X+LC)+PW91 (PBE-D3)
  
       i  u  d  i  g
       t  p  i  c  r                                 RMS    maximum
       e  d  i  u  i                       energy  density   DIIS  
       r  t  s  t  d       total energy    change  change    error 
  
etot    1  N  N  5  M    -269.32692187176           7.2E-03  1.1E-01
etot    2  Y  Y  6  M    -269.99839990382  6.7E-01  5.1E-03  4.9E-02
etot    3  Y  Y  6  M    -270.04428698956  4.6E-02  2.8E-03  5.0E-02
etot    4  N  Y  2  U    -270.13229162085  8.8E-02  1.4E-03  1.8E-02
etot    5  Y  Y  6  M    -270.15516602463  2.3E-02  5.1E-04  6.1E-03
etot    6  N  Y  2  U    -270.15647140545  1.3E-03  2.9E-04  3.1E-03
etot    7  Y  Y  6  M    -270.15688952837  4.2E-04  1.6E-04  1.2E-03
etot    8  Y  Y  6  M    -270.15692297722  3.3E-05  5.8E-05  1.1E-03
etot    9  Y  Y  6  M    -270.15696100093  3.8E-05  2.1E-05  3.5E-04
etot   10  N  Y  2  U    -270.15702719399  6.6E-05  5.9E-06  7.0E-05
etot   11  N  Y  2  U    -270.15702743939  2.5E-07  1.8E-06  2.6E-05
etot   12  N  N  2  U    -270.15702745135  1.2E-08  0.0E+00  0.0E+00
scf (DFT) done.
der1a (1-e 1st deriv.) done.
rwr (1st deriv. Q) done.
der1b (2-e 1st deriv.) done.
  Geometry optimization step   1
  Total energy:      -270.16104102113 hartrees
  gradient maximum:        1.2673E-02 .  (  4.5000E-04 )
  gradient rms:            3.6485E-03 .  (  3.0000E-04 )
  displacement maximum:    1.3000E-01 .  (  1.8000E-03 )
  displacement rms:        3.7915E-02 .  (  1.2000E-03 )
  
  predicted energy change: -1.0779E-03
  step size:     0.22749
  trust radius:  0.30000
---------------- geometry iteration   1 complete ----------------
geopt (optimize geometry) done.
onee (1-electron integrals) done.
probe (project orbitals) done.
grid (grid generation) done.
rwr (Q operators) done.
  
       i  u  d  i  g
       t  p  i  c  r                                 RMS    maximum
       e  d  i  u  i                       energy  density   DIIS  
       r  t  s  t  d       total energy    change  change    error 
  
etot    1  N  N  2  U    -270.15017983925           9.3E-04  9.0E-03
etot    2  Y  Y  6  M    -270.15823758867  8.1E-03  1.1E-04  9.5E-04
etot    3  N  Y  2  U    -270.15813452113 -1.0E-04  9.3E-05  2.3E-03
etot    4  Y  Y  6  M    -270.15823153903  9.7E-05  2.6E-05  4.9E-04
etot    5  N  Y  2  U    -270.15824476891  1.3E-05  6.7E-06  1.3E-04
etot    6  N  Y  2  U    -270.15824552059  7.5E-07  3.7E-06  3.3E-05
etot    7  N  N  2  U    -270.15824555824  3.8E-08  0.0E+00  0.0E+00
scf (DFT) done.
der1a (1-e 1st deriv.) done.
rwr (1st deriv. Q) done.
der1b (2-e 1st deriv.) done.
  Geometry optimization step   2
  Total energy:      -270.16220921834 hartrees
  energy change:          -1.1682E-03 .  (  5.0000E-05 )
  gradient maximum:        5.8069E-03 .  (  4.5000E-04 )
  gradient rms:            2.0699E-03 .  (  3.0000E-04 )
  displacement maximum:    1.7633E-01 .  (  1.8000E-03 )
  displacement rms:        5.0003E-02 .  (  1.2000E-03 )
  
  predicted energy change: -6.3012E-04
  step size:     0.30002
  trust radius:  0.30000
---------------- geometry iteration   2 complete ----------------
geopt (optimize geometry) done.
onee (1-electron integrals) done.
probe (project orbitals) done.
grid (grid generation) done.
rwr (Q operators) done.
  
       i  u  d  i  g
       t  p  i  c  r                                 RMS    maximum
       e  d  i  u  i                       energy  density   DIIS  
       r  t  s  t  d       total energy    change  change    error 
  
etot    1  N  N  2  U    -270.14708736188           1.2E-03  1.2E-02
etot    2  Y  Y  6  M    -270.15925091550  1.2E-02  1.0E-04  9.0E-04
etot    3  N  Y  2  U    -270.15919454665 -5.6E-05  6.1E-05  6.8E-04
etot    4  Y  Y  6  M    -270.15921229113  1.8E-05  2.7E-05  5.6E-04
etot    5  N  Y  2  U    -270.15922603728  1.4E-05  5.9E-06  6.8E-05
etot    6  N  Y  2  U    -270.15922628017  2.4E-07  3.5E-06  2.5E-05
etot    7  N  N  2  U    -270.15922630145  2.1E-08  0.0E+00  0.0E+00
scf (DFT) done.
der1a (1-e 1st deriv.) done.
rwr (1st deriv. Q) done.
der1b (2-e 1st deriv.) done.
  Geometry optimization step   3
  Total energy:      -270.16315112675 hartrees
  energy change:          -9.4191E-04 .  (  5.0000E-05 )
  gradient maximum:        6.7680E-03 .  (  4.5000E-04 )
  gradient rms:            2.0111E-03 .  (  3.0000E-04 )
  displacement maximum:    1.6851E-01 .  (  1.8000E-03 )
  displacement rms:        5.0004E-02 .  (  1.2000E-03 )
  
  predicted energy change: -8.4127E-04
  step size:     0.30002
  trust radius:  0.30000
---------------- geometry iteration   3 complete ----------------
geopt (optimize geometry) done.
onee (1-electron integrals) done.
probe (project orbitals) done.
grid (grid generation) done.
rwr (Q operators) done.
  
       i  u  d  i  g
       t  p  i  c  r                                 RMS    maximum
       e  d  i  u  i                       energy  density   DIIS  
       r  t  s  t  d       total energy    change  change    error 
  
etot    1  N  N  2  U    -270.14846910498           1.2E-03  1.3E-02
etot    2  Y  Y  6  M    -270.16009763386  1.2E-02  1.1E-04  9.1E-04
etot    3  N  Y  2  U    -270.16005157363 -4.6E-05  7.2E-05  1.0E-03
etot    4  Y  Y  6  M    -270.16008783457  3.6E-05  2.8E-05  5.9E-04
etot    5  N  Y  2  U    -270.16010567552  1.8E-05  6.0E-06  6.5E-05
etot    6  N  Y  2  U    -270.16010590721  2.3E-07  3.6E-06  4.3E-05
etot    7  N  N  2  U    -270.16010596300  5.6E-08  0.0E+00  0.0E+00
scf (DFT) done.
der1a (1-e 1st deriv.) done.
rwr (1st deriv. Q) done.
der1b (2-e 1st deriv.) done.
  Geometry optimization step   4
  Total energy:      -270.16400602779 hartrees
  energy change:          -8.5490E-04 .  (  5.0000E-05 )
  gradient maximum:        3.5234E-03 .  (  4.5000E-04 )
  gradient rms:            1.2319E-03 .  (  3.0000E-04 )
  displacement maximum:    1.5841E-01 .  (  1.8000E-03 )
  displacement rms:        5.0053E-02 .  (  1.2000E-03 )
  
  predicted energy change: -5.9361E-04
  step size:     0.30032
  trust radius:  0.30000
---------------- geometry iteration   4 complete ----------------
geopt (optimize geometry) done.
onee (1-electron integrals) done.
probe (project orbitals) done.
grid (grid generation) done.
rwr (Q operators) done.
  
       i  u  d  i  g
       t  p  i  c  r                                 RMS    maximum
       e  d  i  u  i                       energy  density   DIIS  
       r  t  s  t  d       total energy    change  change    error 
  
etot    1  N  N  2  U    -270.14721402455           1.2E-03  1.4E-02
etot    2  Y  Y  6  M    -270.16069320637  1.3E-02  1.2E-04  1.0E-03
etot    3  N  Y  2  U    -270.16069211950 -1.1E-06  8.6E-05  1.6E-03
etot    4  Y  Y  6  M    -270.16074593649  5.4E-05  3.3E-05  8.0E-04
etot    5  N  Y  2  U    -270.16077304255  2.7E-05  7.6E-06  6.2E-05
etot    6  N  Y  2  U    -270.16077311789  7.5E-08  4.7E-06  7.5E-05
etot    7  N  N  2  U    -270.16077329325  1.8E-07  0.0E+00  0.0E+00
scf (DFT) done.
der1a (1-e 1st deriv.) done.
rwr (1st deriv. Q) done.
der1b (2-e 1st deriv.) done.
  Geometry optimization step   5
  Total energy:      -270.16466408263 hartrees
  energy change:          -6.5805E-04 .  (  5.0000E-05 )
  gradient maximum:        2.5778E-03 .  (  4.5000E-04 )
  gradient rms:            9.2664E-04 .  (  3.0000E-04 )
  displacement maximum:    1.5693E-01 .  (  1.8000E-03 )
  displacement rms:        5.0002E-02 .  (  1.2000E-03 )
  
  predicted energy change: -4.4149E-04
  step size:     0.30001
  trust radius:  0.30000
---------------- geometry iteration   5 complete ----------------
geopt (optimize geometry) done.
onee (1-electron integrals) done.
probe (project orbitals) done.
grid (grid generation) done.
rwr (Q operators) done.
  
       i  u  d  i  g
       t  p  i  c  r                                 RMS    maximum
       e  d  i  u  i                       energy  density   DIIS  
       r  t  s  t  d       total energy    change  change    error 
  
etot    1  N  N  2  U    -270.14313841930           1.4E-03  1.4E-02
etot    2  Y  Y  6  M    -270.16103846037  1.8E-02  1.5E-04  1.5E-03
etot    3  N  Y  2  U    -270.16108294939  4.4E-05  1.2E-04  1.8E-03
etot    4  Y  Y  6  M    -270.16117885929  9.6E-05  5.0E-05  1.0E-03
etot    5  N  Y  2  U    -270.16122568682  4.7E-05  1.0E-05  2.6E-04
etot    6  N  Y  2  U    -270.16122718671  1.5E-06  5.1E-06  6.7E-05
etot    7  N  Y  2  U    -270.16122726757  8.1E-08  2.6E-06  2.8E-05
etot    8  N  N  2  U    -270.16122729974  3.2E-08  0.0E+00  0.0E+00
scf (DFT) done.
der1a (1-e 1st deriv.) done.
rwr (1st deriv. Q) done.
der1b (2-e 1st deriv.) done.
  Geometry optimization step   6
  Total energy:      -270.16513015653 hartrees
  energy change:          -4.6607E-04 .  (  5.0000E-05 )
  gradient maximum:        2.8166E-03 .  (  4.5000E-04 )
  gradient rms:            8.3906E-04 .  (  3.0000E-04 )
  displacement maximum:    1.2737E-01 .  (  1.8000E-03 )
  displacement rms:        2.7540E-02 .  (  1.2000E-03 )
  
  predicted energy change: -1.3224E-04
  step size:     0.16524
  trust radius:  0.30000
---------------- geometry iteration   6 complete ----------------
geopt (optimize geometry) done.
onee (1-electron integrals) done.
probe (project orbitals) done.
grid (grid generation) done.
rwr (Q operators) done.
  
       i  u  d  i  g
       t  p  i  c  r                                 RMS    maximum
       e  d  i  u  i                       energy  density   DIIS  
       r  t  s  t  d       total energy    change  change    error 
  
etot    1  N  N  2  U    -270.15351869852           9.2E-04  8.7E-03
etot    2  Y  Y  6  M    -270.16121119955  7.7E-03  1.0E-04  1.2E-03
etot    3  N  Y  2  U    -270.16129868451  8.7E-05  7.7E-05  8.8E-04
etot    4  Y  Y  6  M    -270.16132486636  2.6E-05  3.4E-05  6.3E-04
etot    5  N  Y  2  U    -270.16134748144  2.3E-05  7.1E-06  1.8E-04
etot    6  N  Y  2  U    -270.16134826584  7.8E-07  3.0E-06  4.3E-05
etot    7  N  N  2  U    -270.16134829904  3.3E-08  0.0E+00  0.0E+00
scf (DFT) done.
der1a (1-e 1st deriv.) done.
rwr (1st deriv. Q) done.
der1b (2-e 1st deriv.) done.
  Geometry optimization step   7
  Total energy:      -270.16526294491 hartrees
  energy change:          -1.3279E-04 .  (  5.0000E-05 )
  gradient maximum:        4.2489E-03 .  (  4.5000E-04 )
  gradient rms:            9.1334E-04 .  (  3.0000E-04 )
  displacement maximum:    3.5358E-02 .  (  1.8000E-03 )
  displacement rms:        9.5177E-03 .  (  1.2000E-03 )
  
  predicted energy change: -5.8077E-05
  step size:     0.05711
  trust radius:  0.30000
---------------- geometry iteration   7 complete ----------------
geopt (optimize geometry) done.
onee (1-electron integrals) done.
probe (project orbitals) done.
grid (grid generation) done.
rwr (Q operators) done.
  
       i  u  d  i  g
       t  p  i  c  r                                 RMS    maximum
       e  d  i  u  i                       energy  density   DIIS  
       r  t  s  t  d       total energy    change  change    error 
  
etot    1  N  N  2  U    -270.16076676237           2.7E-04  2.7E-03
etot    2  Y  Y  6  M    -270.16142849684  6.6E-04  3.2E-05  2.6E-04
etot    3  N  Y  2  U    -270.16142972418  1.2E-06  2.1E-05  2.7E-04
etot    4  N  Y  2  U    -270.16143123365  1.5E-06  9.8E-06  2.3E-04
etot    5  N  Y  2  U    -270.16143290620  1.7E-06  2.5E-06  3.5E-05
etot    6  N  N  2  U    -270.16143297831  7.2E-08  0.0E+00  0.0E+00
scf (DFT) done.
der1a (1-e 1st deriv.) done.
rwr (1st deriv. Q) done.
der1b (2-e 1st deriv.) done.
  Geometry optimization step   8
  Total energy:      -270.16534370673 hartrees
  energy change:          -8.0762E-05 .  (  5.0000E-05 )
  gradient maximum:        1.2036E-03 .  (  4.5000E-04 )
  gradient rms:            4.5875E-04 .  (  3.0000E-04 )
  displacement maximum:    7.5554E-02 .  (  1.8000E-03 )
  displacement rms:        1.4258E-02 .  (  1.2000E-03 )
  
  predicted energy change: -5.2041E-05
  step size:     0.08555
  trust radius:  0.30000
---------------- geometry iteration   8 complete ----------------
geopt (optimize geometry) done.
onee (1-electron integrals) done.
probe (project orbitals) done.
grid (grid generation) done.
rwr (Q operators) done.
  
       i  u  d  i  g
       t  p  i  c  r                                 RMS    maximum
       e  d  i  u  i                       energy  density   DIIS  
       r  t  s  t  d       total energy    change  change    error 
  
etot    1  N  N  2  U    -270.15895913205           5.4E-04  5.0E-03
etot    2  Y  Y  6  M    -270.16145538658  2.5E-03  7.2E-05  6.9E-04
etot    3  Y  Y  6  M    -270.16145129775 -4.1E-06  5.1E-05  8.9E-04
etot    4  N  Y  2  U    -270.16150495064  5.4E-05  1.7E-05  3.4E-04
etot    5  N  Y  2  U    -270.16150933550  4.4E-06  5.3E-06  1.4E-04
etot    6  N  Y  2  U    -270.16150978467  4.5E-07  2.6E-06  2.3E-05
etot    7  N  N  2  U    -270.16150979800  1.3E-08  0.0E+00  0.0E+00
scf (DFT) done.
der1a (1-e 1st deriv.) done.
rwr (1st deriv. Q) done.
der1b (2-e 1st deriv.) done.
  Geometry optimization step   9
  Total energy:      -270.16542035022 hartrees
  energy change:          -7.6643E-05 .  (  5.0000E-05 )
  gradient maximum:        1.1884E-03 .  (  4.5000E-04 )
  gradient rms:            4.8142E-04 .  (  3.0000E-04 )
  displacement maximum:    7.5976E-02 .  (  1.8000E-03 )
  displacement rms:        1.6806E-02 .  (  1.2000E-03 )
  
  predicted energy change: -3.8342E-05
  step size:     0.10083
  trust radius:  0.30000
---------------- geometry iteration   9 complete ----------------
geopt (optimize geometry) done.
onee (1-electron integrals) done.
probe (project orbitals) done.
grid (grid generation) done.
rwr (Q operators) done.
  
       i  u  d  i  g
       t  p  i  c  r                                 RMS    maximum
       e  d  i  u  i                       energy  density   DIIS  
       r  t  s  t  d       total energy    change  change    error 
  
etot    1  N  N  2  U    -270.15805613683           6.4E-04  6.2E-03
etot    2  Y  Y  6  M    -270.16152809717  3.5E-03  7.7E-05  7.4E-04
etot    3  Y  Y  6  M    -270.16152252629 -5.6E-06  5.5E-05  8.2E-04
etot    4  N  Y  2  U    -270.16155520616  3.3E-05  1.9E-05  3.5E-04
etot    5  N  Y  2  U    -270.16156107423  5.9E-06  5.4E-06  1.3E-04
etot    6  N  Y  2  U    -270.16156152207  4.5E-07  2.9E-06  2.7E-05
etot    7  N  N  2  U    -270.16156154067  1.9E-08  0.0E+00  0.0E+00
scf (DFT) done.
der1a (1-e 1st deriv.) done.
rwr (1st deriv. Q) done.
der1b (2-e 1st deriv.) done.
  Geometry optimization step  10
  Total energy:      -270.16547236427 hartrees
  energy change:          -5.2014E-05 .  (  5.0000E-05 )
  gradient maximum:        1.0026E-03 .  (  4.5000E-04 )
  gradient rms:            3.5251E-04 .  (  3.0000E-04 )
  displacement maximum:    3.9590E-02 .  (  1.8000E-03 )
  displacement rms:        1.2635E-02 .  (  1.2000E-03 )
  
  predicted energy change: -2.1882E-05
  step size:     0.07581
  trust radius:  0.30000
---------------- geometry iteration  10 complete ----------------
geopt (optimize geometry) done.
onee (1-electron integrals) done.
probe (project orbitals) done.
grid (grid generation) done.
rwr (Q operators) done.
  
       i  u  d  i  g
       t  p  i  c  r                                 RMS    maximum
       e  d  i  u  i                       energy  density   DIIS  
       r  t  s  t  d       total energy    change  change    error 
  
etot    1  N  N  2  U    -270.16006026552           4.3E-04  5.0E-03
etot    2  Y  Y  6  M    -270.16160353371  1.5E-03  4.0E-05  4.0E-04
etot    3  N  Y  2  U    -270.16158802216 -1.6E-05  2.8E-05  3.5E-04
etot    4  N  Y  2  U    -270.16159510494  7.1E-06  9.6E-06  1.7E-04
etot    5  N  Y  2  U    -270.16159682710  1.7E-06  2.7E-06  4.9E-05
etot    6  N  N  2  U    -270.16159691373  8.7E-08  0.0E+00  0.0E+00
scf (DFT) done.
der1a (1-e 1st deriv.) done.
rwr (1st deriv. Q) done.
der1b (2-e 1st deriv.) done.
  Geometry optimization step  11
  Total energy:      -270.16550296170 hartrees
  energy change:          -3.0597E-05 *  (  5.0000E-05 )
  gradient maximum:        8.7180E-04 .  (  4.5000E-04 )
  gradient rms:            3.3367E-04 .  (  3.0000E-04 )
  displacement maximum:    1.2266E-01 .  (  1.8000E-03 )
  displacement rms:        3.3477E-02 .  (  1.2000E-03 )
  
  predicted energy change: -4.7224E-05
  step size:     0.20086
  trust radius:  0.30000
---------------- geometry iteration  11 complete ----------------
geopt (optimize geometry) done.
onee (1-electron integrals) done.
probe (project orbitals) done.
grid (grid generation) done.
rwr (Q operators) done.
  
       i  u  d  i  g
       t  p  i  c  r                                 RMS    maximum
       e  d  i  u  i                       energy  density   DIIS  
       r  t  s  t  d       total energy    change  change    error 
  
etot    1  N  N  2  U    -270.14882625498           1.2E-03  1.1E-02
etot    2  Y  Y  6  M    -270.16168100841  1.3E-02  1.3E-04  1.0E-03
etot    3  N  Y  2  U    -270.16154172469 -1.4E-04  9.1E-05  1.5E-03
etot    4  Y  Y  6  M    -270.16162356602  8.2E-05  2.9E-05  5.2E-04
etot    5  N  Y  2  U    -270.16164208974  1.9E-05  9.2E-06  1.4E-04
etot    6  N  Y  2  U    -270.16164332509  1.2E-06  4.3E-06  3.8E-05
etot    7  N  N  2  U    -270.16164338302  5.8E-08  0.0E+00  0.0E+00
scf (DFT) done.
der1a (1-e 1st deriv.) done.
rwr (1st deriv. Q) done.
der1b (2-e 1st deriv.) done.
  Geometry optimization step  12
  Total energy:      -270.16553775158 hartrees
  energy change:          -3.4790E-05 *  (  5.0000E-05 )
  gradient maximum:        2.6802E-03 .  (  4.5000E-04 )
  gradient rms:            7.2453E-04 .  (  3.0000E-04 )
  displacement maximum:    1.9501E-01 .  (  1.8000E-03 )
  displacement rms:        5.0010E-02 .  (  1.2000E-03 )
  
  predicted energy change: -9.0760E-05
  step size:     0.30006
  trust radius:  0.30000
---------------- geometry iteration  12 complete ----------------
geopt (optimize geometry) done.
onee (1-electron integrals) done.
probe (project orbitals) done.
grid (grid generation) done.
rwr (Q operators) done.
  
       i  u  d  i  g
       t  p  i  c  r                                 RMS    maximum
       e  d  i  u  i                       energy  density   DIIS  
       r  t  s  t  d       total energy    change  change    error 
  
etot    1  N  N  2  U    -270.13918839392           1.6E-03  1.8E-02
etot    2  Y  Y  6  M    -270.16179844749  2.3E-02  1.2E-04  1.3E-03
etot    3  N  Y  2  U    -270.16167471186 -1.2E-04  7.6E-05  7.6E-04
etot    4  Y  Y  6  M    -270.16169752357  2.3E-05  3.4E-05  6.0E-04
etot    5  N  Y  2  U    -270.16172458786  2.7E-05  1.0E-05  1.1E-04
etot    6  N  Y  2  U    -270.16172554772  9.6E-07  4.9E-06  5.6E-05
etot    7  N  N  2  U    -270.16172557920  3.1E-08  0.0E+00  0.0E+00
scf (DFT) done.
der1a (1-e 1st deriv.) done.
rwr (1st deriv. Q) done.
der1b (2-e 1st deriv.) done.
  Geometry optimization step  13
  Total energy:      -270.16560526240 hartrees
  energy change:          -6.7511E-05 .  (  5.0000E-05 )
  gradient maximum:        2.7788E-03 .  (  4.5000E-04 )
  gradient rms:            9.0377E-04 .  (  3.0000E-04 )
  displacement maximum:    5.2478E-02 .  (  1.8000E-03 )
  displacement rms:        1.4309E-02 .  (  1.2000E-03 )
  
  predicted energy change: -7.2865E-05
  step size:     0.08585
  trust radius:  0.30000
---------------- geometry iteration  13 complete ----------------
geopt (optimize geometry) done.
onee (1-electron integrals) done.
probe (project orbitals) done.
grid (grid generation) done.
rwr (Q operators) done.
  
       i  u  d  i  g
       t  p  i  c  r                                 RMS    maximum
       e  d  i  u  i                       energy  density   DIIS  
       r  t  s  t  d       total energy    change  change    error 
  
etot    1  N  N  2  U    -270.16078315985           3.4E-04  2.9E-03
etot    2  Y  Y  6  M    -270.16173197515  9.5E-04  8.3E-05  5.7E-04
etot    3  Y  Y  6  M    -270.16169540053 -3.7E-05  6.2E-05  1.1E-03
etot    4  Y  Y  6  M    -270.16175168404  5.6E-05  1.4E-05  2.2E-04
etot    5  N  Y  2  U    -270.16178356698  3.2E-05  4.3E-06  5.9E-05
etot    6  N  N  2  U    -270.16178384936  2.8E-07  0.0E+00  0.0E+00
scf (DFT) done.
der1a (1-e 1st deriv.) done.
rwr (1st deriv. Q) done.
der1b (2-e 1st deriv.) done.
  Geometry optimization step  14
  Total energy:      -270.16566136104 hartrees
  energy change:          -5.6099E-05 .  (  5.0000E-05 )
  gradient maximum:        3.5253E-03 .  (  4.5000E-04 )
  gradient rms:            1.0424E-03 .  (  3.0000E-04 )
  displacement maximum:    1.4385E-01 .  (  1.8000E-03 )
  displacement rms:        2.8926E-02 .  (  1.2000E-03 )
  
  predicted energy change: -1.5277E-04
  step size:     0.17356
  trust radius:  0.30000
---------------- geometry iteration  14 complete ----------------
geopt (optimize geometry) done.
onee (1-electron integrals) done.
probe (project orbitals) done.
grid (grid generation) done.
rwr (Q operators) done.
  
       i  u  d  i  g
       t  p  i  c  r                                 RMS    maximum
       e  d  i  u  i                       energy  density   DIIS  
       r  t  s  t  d       total energy    change  change    error 
  
etot    1  N  N  2  U    -270.14818253772           1.2E-03  1.3E-02
etot    2  Y  Y  6  M    -270.16132913866  1.3E-02  2.4E-04  1.4E-03
etot    3  N  Y  2  U    -270.16090375272 -4.3E-04  1.8E-04  3.7E-03
etot    4  Y  Y  6  M    -270.16133020858  4.3E-04  4.1E-05  6.4E-04
etot    5  N  Y  2  U    -270.16135335129  2.3E-05  1.4E-05  1.9E-04
etot    6  N  Y  2  U    -270.16135660613  3.3E-06  5.1E-06  6.7E-05
etot    7  N  Y  2  U    -270.16135675846  1.5E-07  2.6E-06  3.0E-05
etot    8  N  N  2  U    -270.16135680349  4.5E-08  0.0E+00  0.0E+00
scf (DFT) done.
der1a (1-e 1st deriv.) done.
rwr (1st deriv. Q) done.
der1b (2-e 1st deriv.) done.
  Geometry optimization step  15
  Total energy:      -270.16524114783 hartrees
  ** restarting optimization from step   14 **
  energy change:           4.2021E-04 .  (  5.0000E-05 )
  gradient maximum:        3.5253E-03 .  (  4.5000E-04 )
  gradient rms:            1.0424E-03 .  (  3.0000E-04 )
  displacement maximum:    1.3624E-01 .  (  1.8000E-03 )
  displacement rms:        2.6315E-02 .  (  1.2000E-03 )
  
  predicted energy change: -1.3890E-04
  step size:     0.15789
  trust radius:  0.30000
---------------- geometry iteration  15 complete ----------------
geopt (optimize geometry) done.
onee (1-electron integrals) done.
probe (project orbitals) done.
grid (grid generation) done.
rwr (Q operators) done.
  
       i  u  d  i  g
       t  p  i  c  r                                 RMS    maximum
       e  d  i  u  i                       energy  density   DIIS  
       r  t  s  t  d       total energy    change  change    error 
  
etot    1  N  N  2  U    -270.16134777913           1.5E-04  1.3E-03
etot    2  Y  Y  6  M    -270.16155390621  2.1E-04  2.6E-05  9.7E-05
etot    3  N  Y  2  U    -270.16155214295 -1.8E-06  1.8E-05  2.5E-04
etot    4  N  Y  2  U    -270.16155634881  4.2E-06  4.4E-06  7.7E-05
etot    5  N  N  2  U    -270.16155655658  2.1E-07  0.0E+00  0.0E+00
scf (DFT) done.
der1a (1-e 1st deriv.) done.
rwr (1st deriv. Q) done.
der1b (2-e 1st deriv.) done.
  Geometry optimization step  16
  Total energy:      -270.16543855993 hartrees
  ** restarting optimization from step   14 **
  energy change:           2.2280E-04 .  (  5.0000E-05 )
  gradient maximum:        3.5253E-03 .  (  4.5000E-04 )
  gradient rms:            1.0424E-03 .  (  3.0000E-04 )
  displacement maximum:    5.6249E-02 .  (  1.8000E-03 )
  displacement rms:        1.2294E-02 .  (  1.2000E-03 )
  
  predicted energy change: -7.7688E-05
  step size:     0.07376
  trust radius:  0.15000
---------------- geometry iteration  16 complete ----------------
geopt (optimize geometry) done.
onee (1-electron integrals) done.
probe (project orbitals) done.
grid (grid generation) done.
rwr (Q operators) done.
  
       i  u  d  i  g
       t  p  i  c  r                                 RMS    maximum
       e  d  i  u  i                       energy  density   DIIS  
       r  t  s  t  d       total energy    change  change    error 
  
etot    1  N  N  2  U    -270.15578028140           8.3E-04  8.7E-03
etot    2  Y  Y  6  M    -270.16177555898  6.0E-03  9.4E-05  6.2E-04
etot    3  N  Y  2  U    -270.16175545620 -2.0E-05  6.6E-05  8.4E-04
etot    4  Y  Y  6  M    -270.16180545371  5.0E-05  2.0E-05  3.4E-04
etot    5  N  Y  2  U    -270.16181474753  9.3E-06  5.8E-06  1.0E-04
etot    6  N  Y  2  U    -270.16181523658  4.9E-07  2.6E-06  2.3E-05
etot    7  N  N  2  U    -270.16181525601  1.9E-08  0.0E+00  0.0E+00
scf (DFT) done.
der1a (1-e 1st deriv.) done.
rwr (1st deriv. Q) done.
der1b (2-e 1st deriv.) done.
  Geometry optimization step  17
  Total energy:      -270.16569274689 hartrees
  energy change:          -3.1386E-05 *  (  5.0000E-05 )
  gradient maximum:        4.1710E-03 .  (  4.5000E-04 )
  gradient rms:            1.0635E-03 .  (  3.0000E-04 )
  displacement maximum:    4.8583E-02 .  (  1.8000E-03 )
  displacement rms:        1.2582E-02 .  (  1.2000E-03 )
  
  predicted energy change: -7.7218E-05
  step size:     0.07549
  trust radius:  0.07500
---------------- geometry iteration  17 complete ----------------
geopt (optimize geometry) done.
onee (1-electron integrals) done.
probe (project orbitals) done.
grid (grid generation) done.
rwr (Q operators) done.
  
       i  u  d  i  g
       t  p  i  c  r                                 RMS    maximum
       e  d  i  u  i                       energy  density   DIIS  
       r  t  s  t  d       total energy    change  change    error 
  
etot    1  N  N  2  U    -270.16137373122           2.6E-04  2.3E-03
etot    2  Y  Y  6  M    -270.16186754926  4.9E-04  4.2E-05  3.0E-04
etot    3  N  Y  2  U    -270.16187210684  4.6E-06  3.1E-05  6.7E-04
etot    4  N  Y  2  U    -270.16188584333  1.4E-05  9.6E-06  1.4E-04
etot    5  N  Y  2  U    -270.16188657258  7.3E-07  3.6E-06  6.2E-05
etot    6  N  N  2  U    -270.16188679383  2.2E-07  0.0E+00  0.0E+00
scf (DFT) done.
der1a (1-e 1st deriv.) done.
rwr (1st deriv. Q) done.
der1b (2-e 1st deriv.) done.
  Geometry optimization step  18
  Total energy:      -270.16576603141 hartrees
  energy change:          -7.3285E-05 .  (  5.0000E-05 )
  gradient maximum:        4.7416E-04 .  (  4.5000E-04 )
  gradient rms:            2.1023E-04 *  (  3.0000E-04 )
  displacement maximum:    3.0163E-02 .  (  1.8000E-03 )
  displacement rms:        7.3721E-03 .  (  1.2000E-03 )
  
  predicted energy change: -7.6476E-06
  step size:     0.04423
  trust radius:  0.10607
---------------- geometry iteration  18 complete ----------------
geopt (optimize geometry) done.
onee (1-electron integrals) done.
probe (project orbitals) done.
grid (grid generation) done.
rwr (Q operators) done.
  
       i  u  d  i  g
       t  p  i  c  r                                 RMS    maximum
       e  d  i  u  i                       energy  density   DIIS  
       r  t  s  t  d       total energy    change  change    error 
  
etot    1  N  N  2  U    -270.16165991682           1.8E-04  1.7E-03
etot    2  Y  Y  6  M    -270.16189085947  2.3E-04  1.6E-05  1.2E-04
etot    3  N  Y  2  U    -270.16189705243  6.2E-06  1.2E-05  2.2E-04
etot    4  N  Y  2  U    -270.16189837192  1.3E-06  4.8E-06  9.2E-05
etot    5  N  N  2  U    -270.16189861877  2.5E-07  0.0E+00  0.0E+00
scf (DFT) done.
der1a (1-e 1st deriv.) done.
rwr (1st deriv. Q) done.
der1b (2-e 1st deriv.) done.
  Geometry optimization step  19
  Total energy:      -270.16577716188 hartrees
  energy change:          -1.1130E-05 *  (  5.0000E-05 )
  gradient maximum:        4.9197E-04 .  (  4.5000E-04 )
  gradient rms:            1.6760E-04 *  (  3.0000E-04 )
  displacement maximum:    2.8455E-02 .  (  1.8000E-03 )
  displacement rms:        7.8714E-03 .  (  1.2000E-03 )
  
  predicted energy change: -8.4119E-06
  step size:     0.04723
  trust radius:  0.10607
---------------- geometry iteration  19 complete ----------------
geopt (optimize geometry) done.
onee (1-electron integrals) done.
probe (project orbitals) done.
grid (grid generation) done.
rwr (Q operators) done.
  
       i  u  d  i  g
       t  p  i  c  r                                 RMS    maximum
       e  d  i  u  i                       energy  density   DIIS  
       r  t  s  t  d       total energy    change  change    error 
  
etot    1  N  N  2  U    -270.16171449549           1.6E-04  1.5E-03
etot    2  Y  Y  6  M    -270.16189316022  1.8E-04  2.1E-05  1.3E-04
etot    3  N  Y  2  U    -270.16191095569  1.8E-05  1.7E-05  2.1E-04
etot    4  N  Y  2  U    -270.16191328265  2.3E-06  6.3E-06  1.1E-04
etot    5  N  Y  2  U    -270.16191389102  6.1E-07  1.1E-06  1.5E-05
etot    6  N  N  2  U    -270.16191390517  1.4E-08  0.0E+00  0.0E+00
scf (DFT) done.
der1a (1-e 1st deriv.) done.
rwr (1st deriv. Q) done.
der1b (2-e 1st deriv.) done.
  Geometry optimization step  20
  Total energy:      -270.16579236059 hartrees
  energy change:          -1.5199E-05 *  (  5.0000E-05 )
  gradient maximum:        3.1901E-04 *  (  4.5000E-04 )
  gradient rms:            1.3063E-04 *  (  3.0000E-04 )
  displacement maximum:    9.2376E-03 .  (  1.8000E-03 )
  displacement rms:        2.6535E-03 .  (  1.2000E-03 )
  
  predicted energy change: -1.4065E-06
  step size:     0.01592
  trust radius:  0.10607
---------------- geometry iteration  20 complete ----------------
geopt (optimize geometry) done.
onee (1-electron integrals) done.
probe (project orbitals) done.
grid (grid generation) done.
rwr (Q operators) done.
  
       i  u  d  i  g
       t  p  i  c  r                                 RMS    maximum
       e  d  i  u  i                       energy  density   DIIS  
       r  t  s  t  d       total energy    change  change    error 
  
etot    1  N  N  2  U    -270.16185975556           7.7E-05  7.1E-04
etot    2  Y  Y  6  M    -270.16191387080  5.4E-05  7.7E-06  5.5E-05
etot    3  N  Y  2  U    -270.16191062946 -3.2E-06  5.6E-06  6.2E-05
etot    4  N  Y  2  U    -270.16191095738  3.3E-07  1.9E-06  2.8E-05
etot    5  N  N  2  U    -270.16191101992  6.3E-08  0.0E+00  0.0E+00
scf (DFT) done.
der1a (1-e 1st deriv.) done.
rwr (1st deriv. Q) done.
der1b (2-e 1st deriv.) done.
  Geometry optimization step  21
  Total energy:      -270.16578942688 hartrees
  energy change:           2.9337E-06 *  (  5.0000E-05 )
  gradient maximum:        1.7114E-04 *  (  4.5000E-04 )
  gradient rms:            5.2440E-05 #  (  3.0000E-04 )
  displacement maximum:    5.0417E-03 .  (  1.8000E-03 )
  displacement rms:        1.3289E-03 .  (  1.2000E-03 )
  
  predicted energy change: -5.0733E-07
  step size:     0.00797
  trust radius:  0.10607
---------------- geometry iteration  21 complete ----------------
geopt (optimize geometry) done.
onee (1-electron integrals) done.
probe (project orbitals) done.
grid (grid generation) done.
rwr (Q operators) done.
  
       i  u  d  i  g
       t  p  i  c  r                                 RMS    maximum
       e  d  i  u  i                       energy  density   DIIS  
       r  t  s  t  d       total energy    change  change    error 
  
etot    1  N  N  2  U    -270.16189761562           4.2E-05  3.8E-04
etot    2  N  Y  2  U    -270.16191218224  1.5E-05  4.0E-06  2.6E-05
etot    3  N  N  2  U    -270.16191219110  8.9E-09  0.0E+00  0.0E+00
scf (DFT) done.
der1a (1-e 1st deriv.) done.
rwr (1st deriv. Q) done.
der1b (2-e 1st deriv.) done.
  Geometry optimization step  22
  Total energy:      -270.16579080730 hartrees
  energy change:          -1.3804E-06 #  (  5.0000E-05 )
  gradient maximum:        2.2251E-04 *  (  4.5000E-04 )
  gradient rms:            5.6874E-05 #  (  3.0000E-04 )
  displacement maximum:    5.2028E-03 .  (  1.8000E-03 )
  displacement rms:        1.3750E-03 .  (  1.2000E-03 )
  
  predicted energy change: -2.7596E-07
  step size:     0.00825
  trust radius:  0.10607
------------- final geometry iteration  22 complete -------------
geopt (optimize geometry) done.
cutabab2 (abab integrals) done.
der2a (1-e JK-1st deriv.) done.
der2b (2-e JK-1st deriv.) done.
der2nda (1-e 2nd deriv.) done.
der2ndb (2-e 2nd deriv.) done.
rwr (Q operators) done.
cphfa (gradient of wave function) done.
freq (vib. frequencies) done.
Job e2 completed on hpc-24-11.cm.cluster at Wed Apr 19 13:11:18 2023
Timer (jaguar_backend.py) : 400.55 secs (0 hrs, 06 mins, 40 secs)
Finished:   Wed Apr 19 13:11:18 2023
