Job e2 started on hpc-24-11.cm.cluster at Wed Apr 19 13:04:38 2023
jobid: hpc-24-11-0-64404952

  +--------------------------------------------------------------------+
  |  Jaguar version 11.7, release 121                                  |
  |                                                                    |
  |  Copyright Schrodinger, Inc.                                       |
  |  All Rights Reserved.                                              |
  |                                                                    |
  |  The following have contributed to Jaguar (listed alphabetically): |
  |  Mike Beachy, Art Bochevarov, Dale Braden, Yixiang Cao,            |
  |  Alan Chien, Chris Cortis, Rich Friesner, Bill Goddard,            |
  |  Hod Greeley, Tom Hughes, Leif Jacobson, Jean-Marc Langlois,       |
  |  Daniel Levine, Daniel Mainz, Rob Murphy, Dean Philipp,            |
  |  Tom Pollard, Murco Ringnalda, Mark Watson, Haoyu Yu.              |
  |                                                                    |
  |  Use of this program should be acknowledged in publications as:    |
  |                                                                    |
  |  Jaguar, version 11.7, Schrodinger, Inc., New York, NY, 2022.      |
  |                                                                    |
  |  A. D. Bochevarov, E. Harder, T. F. Hughes, J. R. Greenwood,       |
  |  D. A. Braden, D. M. Philipp, D. Rinaldo, M. D. Halls,             |
  |  J. Zhang, R. A. Friesner, "Jaguar: A High-Performance Quantum     |
  |  Chemistry Software Program with Strengths in Life and Materials   |
  |  Sciences", Int. J. Quantum Chem., 2013, 113(18), 2110-2142.       |
  +--------------------------------------------------------------------+
  
  start of program pre
  
  Job name: e2
  Executables used: /central/groups/wag/programs/Schrodinger_2022_3/jaguar-v11.7/bin/Linux-x86_64
  Temporary files : /central/scratch/musgrave/pkozlows/e2
  Maestro file (input):  e2.mae
  Maestro file (output): e2.01.mae
  
 Contents of input file: &gen section only
 ----------------Contents start----------------
&gen
basis=6-31G**
igeopt=1
dftname=PBE-D3
ifreq=1
&
 -----------------Contents end-----------------
 
  basis set:               6-31g**                         
  net molecular charge:    0
  multiplicity:            1
  
  number of basis functions....          130
  
 Input geometry:
                                   angstroms
  atom               x                 y                 z
  C1            0.6137716101      2.9951103857      0.0000000000 
  C2            0.7527460531      1.6626071705      0.0000000000 
  C8           -0.3869630223      0.6766814724      0.0000000000 
  O9           -0.7540122914      0.4348728900     -1.3661607355 
  H5           -0.0879426373     -0.2748517682      0.4883022939 
  H6           -1.2567124441      1.0762211965      0.5631800609 
  C12          -2.0966724242      0.3042760370     -1.5903059635 
  C13          -2.6002560317      0.0753995017     -2.8133064175 
  H9            1.7484989428      1.2037994938      0.0000000000 
  H10           1.4844686125      3.6555231140      0.0000000000 
  H11          -0.3687155819      3.4799907667      0.0000000000 
  H12          -3.6779560933     -0.0217971512     -2.9449234972 
  H13          -1.9526834836     -0.0167671715     -3.6874993094 
  H14          -2.7383884952      0.3989681498     -0.7027530150 
   
  principal moments of inertia:
        amu*angstrom^2:                48.17703               300.06442               318.88941
                g*cm^2:          7.99998273E-39          4.98268636E-38          5.29528258E-38
   
  rotational constants:
               cm^(-1):      0.34991011      0.05618003      0.05286356
                   GHz:     10.49004115      1.68423501      1.58480963
   
  Molecular weight:      84.06 amu
   
  Stoichiometry: C5H8O
  Molecular Point Group: C1      
  Point Group used: C1
  
 
Number of optimization coordinates:    36
Number of independent coordinates:     36
Number of non-redundant coordinates:   36
Number of frozen coordinates:           0
Number of harmonic constraints:         0
 
Number of geometric degrees of freedom:    36
Maximum geometric degrees of freedom:      36
 " " " " " excluding dummy atoms:          36
 
  nuclear repulsion energy.......           217.498974069 hartrees
 
 Non-default options chosen:
   SCF calculation type: DFT(pbe-d3)                 
   DFT=PBE(X+LC)+PW91 (PBE-D3)
   Geometry will be optimized in redundant internal coordinates
   Vibrational frequencies and related properties will be computed
      from analytic second derivatives
   IR intensities will be computed
   Thermochemical properties will be computed
   Scaling standard convergence criteria by a factor of   1.00
  
 Temporary integer options set:
     73=  2
  
  end of program pre
   
 Time(pre)  user:        2.4  user+sys:        2.4  wallclock:        3.0
  
  start of program onee
  
  smallest eigenvalue of S:    4.076E-03
  number of canonical orbitals.....          130
  end of program onee
   
 Time(onee)  user:        0.3  user+sys:        0.3  wallclock:        0.4
  
  start of program hfig
  
  initial wavefunction generated automatically from atomic wavefunctions
 
  Irreducible     Total no   No of occupied orbitals 
  representation  orbitals   Shell_1  Shell_2    ...
  No Symm          130         23
  ------------------------
  Orbital occupation/shell    1.000
 
  end of program hfig
   
 Time(hfig)  user:        0.3  user+sys:        0.3  wallclock:        0.5
  
  start of program probe
  
  end of program probe
   
 Time(probe)  user:        0.2  user+sys:        0.2  wallclock:        0.4
  
  start of program grid
  
   grid     grid set  grid #  grid sym
  ------    --------  ------  --------
  coarse        0        0        1
  medium        2        1        1
  fine          0        0        1
  ultrafine     4        2        1
  charge        0        0        1
  gradient      4        2        1
  density       0        0        1
  DFT-fine    -11        3        1
  DFT-med.    -10        4        1
  DFT-grad    -12        5        1
  DFT-der2     -8        6        1
  DFT-cphf     -9        7        1
  LMP2-enrg     4        2        1
  LMP2-grad     2        1        1
  DFT-cphf2   -15        8        1
  PBF-dens      0        0        1
  plotting      0        0        1
  Rel-grad    -17        0        1
  
  number of gridpoints: 
     atom        C1       C2       C8       O9       H5       H6      C12
  grid # 1       87       95       88      116      112      106       95
  grid # 2      316      333      284      455      448      426      336
  grid # 3     4304     4304     4304     4304     4304     4304     4304
  grid # 4     1192     1192     1192     1192     1192     1192     1192
  grid # 5     5226     5226     5226     5226     5226     5226     5226
  grid # 6    12650    12650    12650    23504    13718    13718    12650
  grid # 7      688      688      688      714      744      744      688
  grid # 8      358      358      358      360      382      382      358
   
  number of gridpoints: 
     atom       C13       H9      H10      H11      H12      H13      H14
  grid # 1       87      117      118      117      118      118      111
  grid # 2      317      450      454      451      456      458      438
  grid # 3     4304     4304     4304     4304     4304     4304     4304
  grid # 4     1192     1192     1192     1192     1192     1192     1192
  grid # 5     5226     5226     5226     5226     5226     5226     5226
  grid # 6    12650    13718    13718    13718    13718    13718    13718
  grid # 7      688      744      744      744      744      744      744
  grid # 8      358      382      382      382      382      382      382
   
  number of gridpoints: 
     atom     total
  grid # 1     1485
  grid # 2     5622
  grid # 3    60256
  grid # 4    16688
  grid # 5    73164
  grid # 6   196498
  grid # 7    10106
  grid # 8     5206
   
  end of program grid
   
 Time(grid)  user:        1.4  user+sys:        1.4  wallclock:        1.7
  
  start of program rwr
  
  end of program rwr
   
 Time(rwr)  user:        0.7  user+sys:        0.7  wallclock:        0.9
  
  start of program scf
  
 number of electrons..........         46
 number of alpha electrons....         23
 number of beta electrons.....         23
 number of orbitals, total....        130
 number of doubly-occ'd orbs..         23
 number of open shell orbs....          0
 number of occupied orbitals..         23
 number of virtual orbitals...        107
 number of hamiltonians.......          1
 number of shells.............          1
 SCF type: DFT=PBE(X+LC)+PW91 (PBE-D3)
 Energy computed with NOPS off.
 Convergence Criterion:
    Energy (econv):       1.00E-05
    RMS density (dconv):  5.00E-06
  
       i  u  d  i  g                   
       t  p  i  c  r                                 RMS    maximum
       e  d  i  u  i                       energy  density   DIIS  
       r  t  s  t  d       total energy    change  change    error 
  
etot    1  N  N  5  M    -269.32692187176           7.2E-03  1.1E-01
etot    2  Y  Y  6  M    -269.99839990382  6.7E-01  5.1E-03  4.9E-02
etot    3  Y  Y  6  M    -270.04428698956  4.6E-02  2.8E-03  5.0E-02
etot    4  N  Y  2  U    -270.13229162085  8.8E-02  1.4E-03  1.8E-02
etot    5  Y  Y  6  M    -270.15516602463  2.3E-02  5.1E-04  6.1E-03
etot    6  N  Y  2  U    -270.15647140545  1.3E-03  2.9E-04  3.1E-03
etot    7  Y  Y  6  M    -270.15688952837  4.2E-04  1.6E-04  1.2E-03
etot    8  Y  Y  6  M    -270.15692297722  3.3E-05  5.8E-05  1.1E-03
etot    9  Y  Y  6  M    -270.15696100093  3.8E-05  2.1E-05  3.5E-04
etot   10  N  Y  2  U    -270.15702719399  6.6E-05  5.9E-06  7.0E-05
etot   11  N  Y  2  U    -270.15702743939  2.5E-07  1.8E-06  2.6E-05
etot   12  N  N  2  U    -270.15702745135  1.2E-08  0.0E+00  0.0E+00
 
  Computing the dispersion energy correction and its gradients...
  
  
 Energy components, in hartrees:
   (A)  Nuclear repulsion............     217.49897406945
   (E)  Total one-electron terms.....    -795.92317350130
   (I)  Total two-electron terms.....     308.26717198049
   (J)    Coulomb....................     346.49875868203
   (K)    Exchange+Correlation.......     -38.23158670154
   (L)  Electronic energy............    -487.65600152081  (E+I)
   (N0) D3 correction................      -0.00401356977
   (N)  Total energy.................    -270.16104102113  (A+L+N0)
   (O)  Gas phase energy.............    -270.16104102113
  
 SCFE: SCF energy: DFT(pbe-d3)      -270.16104102113 hartrees   iterations:  12
  
 
 HOMO energy:    -0.17705
 LUMO energy:    -0.03730
 
  Orbital energies (hartrees): 
   -18.79808    -9.95728    -9.94222    -9.91017    -9.90525    -9.87184
    -0.96476    -0.72056    -0.66811    -0.60959    -0.51558    -0.50699
    -0.45279    -0.43484    -0.40586    -0.36536    -0.36134    -0.33732
    -0.30698    -0.29052    -0.28358    -0.23965    -0.17705    -0.03730
     0.00930     0.07584     0.08064     0.10489     0.11493     0.12794
     0.13808     0.15071     0.16058
 
  end of program scf
   
 Time(scf)  user:        6.4  user+sys:        6.4  wallclock:        7.8
  
  start of program der1a
  
  end of program der1a
   
 Time(der1a)  user:        0.2  user+sys:        0.2  wallclock:        0.4
  
  start of program rwr
  
  end of program rwr
   
 Time(rwr)  user:        0.5  user+sys:        0.5  wallclock:        0.8
  
  start of program der1b
  
   
  forces (hartrees/bohr) : total     
   
 atom  label           x              y              z
 ---- --------   -------------  -------------  -------------
    1 C1          9.741794E-05  -1.734354E-04   1.051966E-03
    2 C2          2.639977E-03  -3.971896E-03   5.591985E-03
    3 C8         -2.459815E-04   4.447723E-03   3.605081E-03
    4 O9         -5.511257E-03  -2.641973E-03  -9.618426E-04
    5 H5         -5.062514E-04   1.150729E-03  -2.009915E-03
    6 H6          1.827665E-03   5.583270E-04  -1.357653E-03
    7 C12        -1.051868E-04  -2.114742E-03  -3.592317E-03
    8 C13        -1.690669E-05  -2.445508E-04  -3.337788E-04
    9 H9          1.935108E-03   3.140269E-03  -1.532048E-03
   10 H10         3.382828E-04   6.692238E-04  -1.054949E-03
   11 H11        -4.009649E-04  -9.549187E-04   5.233963E-04
   12 H12        -3.422115E-05   4.070744E-04  -5.148369E-05
   13 H13        -1.126987E-04  -3.374012E-04   2.334345E-05
   14 H14         1.662617E-05   1.587506E-04   4.154046E-05
 -------------   -------------  -------------  -------------
     total       -7.839070E-05   9.317883E-05  -5.667411E-05
   
  end of program der1b
   
 Time(der1b)  user:        1.3  user+sys:        1.3  wallclock:        1.5
  
  start of program geopt
  
 ----------------------------------------------------------------------------
  Geometry optimization step   1
  Total energy:      -270.16104102113 hartrees
 ----------------------------------------------------------------------------
  
  gradient maximum:        1.2673E-02 .  (  4.5000E-04 )
  gradient rms:            3.6485E-03 .  (  3.0000E-04 )
  displacement maximum:    1.3000E-01 .  (  1.8000E-03 )
  displacement rms:        3.7915E-02 .  (  1.2000E-03 )
  
  predicted energy change:  -1.0779E-03
  step size:     0.22749
  trust radius:  0.30000
  
  molecular structure not yet converged...
  
  center of mass moved by:
     x:    -1.2834E-02     y:     4.5987E-03     z:    -5.4877E-03
  
  new geometry: 
                                   angstroms
  atom               x                 y                 z
  C1            0.6757643091      3.0056130207      0.0920421031 
  C2            0.7852841269      1.6752797887     -0.0148475421 
  C8           -0.3957789425      0.7306317135     -0.0152115414 
  O9           -0.7912422130      0.4522378356     -1.3778720020 
  H5           -0.1253061327     -0.2250824273      0.4741059616 
  H6           -1.2422124633      1.1665131683      0.5501822392 
  C12          -2.1286990975      0.2852363227     -1.6171359950 
  C13          -2.6119012694     -0.0032385558     -2.8362192059 
  H9            1.7754013491      1.2151427074     -0.1225564127 
  H10           1.5532650864      3.6578456750      0.0575522565 
  H11          -0.2969508886      3.4942825893      0.2148347099 
  H12          -3.6869720776     -0.1145363588     -2.9781734129 
  H13          -1.9518081267     -0.1298607810     -3.6964231490 
  H14          -2.7845801574      0.4059002151     -0.7430913210 
   
  nuclear repulsion energy.......           216.055958030 hartrees
  -------------------------------------------------
 /  end of geometry optimization iteration   1   /
 -------------------------------------------------
   
  end of program geopt
   
 Time(geopt)  user:        0.3  user+sys:        0.3  wallclock:        0.5
  
  start of program onee
  
  smallest eigenvalue of S:    4.202E-03
  number of canonical orbitals.....          130
  end of program onee
   
 Time(onee)  user:        0.3  user+sys:        0.3  wallclock:        0.4
  
  start of program probe
  
  end of program probe
   
 Time(probe)  user:        0.2  user+sys:        0.2  wallclock:        0.3
  
  start of program grid
  
   grid     grid set  grid #  grid sym
  ------    --------  ------  --------
  coarse        0        0        1
  medium        2        1        1
  fine          0        0        1
  ultrafine     4        2        1
  charge        0        0        1
  gradient      4        2        1
  density       0        0        1
  DFT-fine    -11        3        1
  DFT-med.    -10        4        1
  DFT-grad    -12        5        1
  DFT-der2     -8        6        1
  DFT-cphf     -9        7        1
  LMP2-enrg     4        2        1
  LMP2-grad     2        1        1
  DFT-cphf2   -15        8        1
  PBF-dens      0        0        1
  plotting      0        0        1
  Rel-grad    -17        0        1
  
  number of gridpoints: 
     atom        C1       C2       C8       O9       H5       H6      C12
  grid # 1       87       95       87      116      111      107       95
  grid # 2      316      338      288      456      448      431      337
  grid # 3     4304     4304     4304     4304     4304     4304     4304
  grid # 4     1192     1192     1192     1192     1192     1192     1192
  grid # 5     5226     5226     5226     5226     5226     5226     5226
  grid # 6    12650    12650    12650    23504    13718    13718    12650
  grid # 7      688      688      688      714      744      744      688
  grid # 8      358      358      358      360      382      382      358
   
  number of gridpoints: 
     atom       C13       H9      H10      H11      H12      H13      H14
  grid # 1       87      117      118      116      118      118      112
  grid # 2      318      450      456      450      456      458      442
  grid # 3     4304     4304     4304     4304     4304     4304     4304
  grid # 4     1192     1192     1192     1192     1192     1192     1192
  grid # 5     5226     5226     5226     5226     5226     5226     5226
  grid # 6    12650    13718    13718    13718    13718    13718    13718
  grid # 7      688      744      744      744      744      744      744
  grid # 8      358      382      382      382      382      382      382
   
  number of gridpoints: 
     atom     total
  grid # 1     1484
  grid # 2     5644
  grid # 3    60256
  grid # 4    16688
  grid # 5    73164
  grid # 6   196498
  grid # 7    10106
  grid # 8     5206
   
  end of program grid
   
 Time(grid)  user:        1.3  user+sys:        1.3  wallclock:        2.0
  
  start of program rwr
  
  end of program rwr
   
 Time(rwr)  user:        0.5  user+sys:        0.5  wallclock:        0.6
  
  start of program scf
  
 Energy computed with NOPS off.
 Convergence Criterion:
    Energy (econv):       1.00E-05
    RMS density (dconv):  5.00E-06
  
       i  u  d  i  g                   
       t  p  i  c  r                                 RMS    maximum
       e  d  i  u  i                       energy  density   DIIS  
       r  t  s  t  d       total energy    change  change    error 
  
etot    1  N  N  2  U    -270.15017983925           9.3E-04  9.0E-03
etot    2  Y  Y  6  M    -270.15823758867  8.1E-03  1.1E-04  9.5E-04
etot    3  N  Y  2  U    -270.15813452113 -1.0E-04  9.3E-05  2.3E-03
etot    4  Y  Y  6  M    -270.15823153903  9.7E-05  2.6E-05  4.9E-04
etot    5  N  Y  2  U    -270.15824476891  1.3E-05  6.7E-06  1.3E-04
etot    6  N  Y  2  U    -270.15824552059  7.5E-07  3.7E-06  3.3E-05
etot    7  N  N  2  U    -270.15824555824  3.8E-08  0.0E+00  0.0E+00
 
  Computing the dispersion energy correction and its gradients...
  
  
 Energy components, in hartrees:
   (A)  Nuclear repulsion............     216.05595802978
   (E)  Total one-electron terms.....    -793.05532219165
   (I)  Total two-electron terms.....     306.84111860363
   (J)    Coulomb....................     345.06355856567
   (K)    Exchange+Correlation.......     -38.22243996204
   (L)  Electronic energy............    -486.21420358802  (E+I)
   (N0) D3 correction................      -0.00396366011
   (N)  Total energy.................    -270.16220921834  (A+L+N0)
   (O)  Gas phase energy.............    -270.16220921834
  
 SCFE: SCF energy: DFT(pbe-d3)      -270.16220921834 hartrees   iterations:   7
  
 
 HOMO energy:    -0.17653
 LUMO energy:    -0.03812
 
  Orbital energies (hartrees): 
   -18.79643    -9.95851    -9.94259    -9.91210    -9.90682    -9.87156
    -0.95940    -0.72130    -0.66854    -0.60955    -0.51296    -0.50776
    -0.45317    -0.43350    -0.40505    -0.36510    -0.36259    -0.33664
    -0.31039    -0.28934    -0.27957    -0.24143    -0.17653    -0.03812
     0.01012     0.07702     0.08036     0.10137     0.11642     0.12778
     0.13540     0.14879     0.15880
 
  end of program scf
   
 Time(scf)  user:        5.3  user+sys:        5.3  wallclock:        6.3
  
  start of program der1a
  
  end of program der1a
   
 Time(der1a)  user:        0.2  user+sys:        0.2  wallclock:        0.3
  
  start of program rwr
  
  end of program rwr
   
 Time(rwr)  user:        0.5  user+sys:        0.5  wallclock:        0.7
  
  start of program der1b
  
   
  forces (hartrees/bohr) : total     
   
 atom  label           x              y              z
 ---- --------   -------------  -------------  -------------
    1 C1         -2.761705E-04   1.288744E-03   1.043610E-03
    2 C2         -1.685058E-03  -4.209620E-03  -4.397788E-04
    3 C8         -3.572100E-04   5.743226E-05   4.212743E-04
    4 O9          5.038182E-04   1.258489E-03  -8.651000E-04
    5 H5         -3.310009E-04  -1.116195E-04   3.927614E-04
    6 H6         -1.908641E-04   1.202851E-03  -1.231238E-03
    7 C12         2.465005E-03  -1.512268E-04   2.009758E-03
    8 C13         6.927875E-04  -3.264694E-04   6.561397E-05
    9 H9         -3.903713E-04   4.937428E-04  -1.907173E-03
   10 H10        -1.312753E-04   1.017426E-04   5.103696E-04
   11 H11        -2.519124E-04  -7.452972E-05  -3.882684E-04
   12 H12         3.695112E-05   6.761571E-05   1.157367E-04
   13 H13         1.134110E-05   4.019854E-05  -4.160947E-05
   14 H14        -1.568250E-04   4.680553E-04   3.418404E-04
 -------------   -------------  -------------  -------------
     total       -6.078517E-05   1.054056E-04   2.779740E-05
   
  end of program der1b
   
 Time(der1b)  user:        1.2  user+sys:        1.2  wallclock:        1.5
  
  start of program geopt
  
 ----------------------------------------------------------------------------
  Geometry optimization step   2
  Total energy:      -270.16220921834 hartrees
 ----------------------------------------------------------------------------
  
  
  Level shifts adjusted to satisfy step-size constraints
   Step size:    0.3000172
   Cos(theta):   0.2906989
   Final level shift:  -1.9673166E-03
  
  energy change:          -1.1682E-03 .  (  5.0000E-05 )
  gradient maximum:        5.8069E-03 .  (  4.5000E-04 )
  gradient rms:            2.0699E-03 .  (  3.0000E-04 )
  displacement maximum:    1.7633E-01 .  (  1.8000E-03 )
  displacement rms:        5.0003E-02 .  (  1.2000E-03 )
  
  predicted energy change:  -6.3012E-04
  step size:     0.30002
  trust radius:  0.30000
  
  molecular structure not yet converged...
  
  center of mass moved by:
     x:    -2.2160E-03     y:     2.2901E-03     z:    -1.0564E-02
  
  new geometry: 
                                   angstroms
  atom               x                 y                 z
  C1            0.7181084987      3.0007274035      0.1935333209 
  C2            0.7894991201      1.6850275280     -0.0533323412 
  C8           -0.4170478593      0.7823996874     -0.0416889582 
  O9           -0.8051017011      0.4694233686     -1.3986753038 
  H5           -0.1865006266     -0.1688905441      0.4734507260 
  H6           -1.2525632663      1.2705599813      0.4934910752 
  C12          -2.1368997787      0.2843737417     -1.6336573389 
  C13          -2.6115998363     -0.0808817552     -2.8350385710 
  H9            1.7571580861      1.2308141966     -0.2992041604 
  H10           1.6001984287      3.6467505178      0.1480386263 
  H11          -0.2335492700      3.4806901673      0.4470516851 
  H12          -3.6862788497     -0.1975290978     -2.9755030384 
  H13          -1.9470986877     -0.2642090658     -3.6814073935 
  H14          -2.7976409619      0.4597417790     -0.7716085270 
   
  nuclear repulsion energy.......           215.922179173 hartrees
  -------------------------------------------------
 /  end of geometry optimization iteration   2   /
 -------------------------------------------------
   
  end of program geopt
   
 Time(geopt)  user:        0.3  user+sys:        0.3  wallclock:        0.4
  
  start of program onee
  
  smallest eigenvalue of S:    4.173E-03
  number of canonical orbitals.....          130
  end of program onee
   
 Time(onee)  user:        0.2  user+sys:        0.2  wallclock:        0.4
  
  start of program probe
  
  end of program probe
   
 Time(probe)  user:        0.2  user+sys:        0.2  wallclock:        0.4
  
  start of program grid
  
   grid     grid set  grid #  grid sym
  ------    --------  ------  --------
  coarse        0        0        1
  medium        2        1        1
  fine          0        0        1
  ultrafine     4        2        1
  charge        0        0        1
  gradient      4        2        1
  density       0        0        1
  DFT-fine    -11        3        1
  DFT-med.    -10        4        1
  DFT-grad    -12        5        1
  DFT-der2     -8        6        1
  DFT-cphf     -9        7        1
  LMP2-enrg     4        2        1
  LMP2-grad     2        1        1
  DFT-cphf2   -15        8        1
  PBF-dens      0        0        1
  plotting      0        0        1
  Rel-grad    -17        0        1
  
  number of gridpoints: 
     atom        C1       C2       C8       O9       H5       H6      C12
  grid # 1       87       95       86      117      111      105       95
  grid # 2      316      337      285      459      449      431      337
  grid # 3     4304     4304     4304     4304     4304     4304     4304
  grid # 4     1192     1192     1192     1192     1192     1192     1192
  grid # 5     5226     5226     5226     5226     5226     5226     5226
  grid # 6    12650    12650    12650    23504    13718    13718    12650
  grid # 7      688      688      688      714      744      744      688
  grid # 8      358      358      358      360      382      382      358
   
  number of gridpoints: 
     atom       C13       H9      H10      H11      H12      H13      H14
  grid # 1       87      117      118      116      118      118      112
  grid # 2      318      451      456      449      456      458      440
  grid # 3     4304     4304     4304     4304     4304     4304     4304
  grid # 4     1192     1192     1192     1192     1192     1192     1192
  grid # 5     5226     5226     5226     5226     5226     5226     5226
  grid # 6    12650    13718    13718    13718    13718    13718    13718
  grid # 7      688      744      744      744      744      744      744
  grid # 8      358      382      382      382      382      382      382
   
  number of gridpoints: 
     atom     total
  grid # 1     1482
  grid # 2     5642
  grid # 3    60256
  grid # 4    16688
  grid # 5    73164
  grid # 6   196498
  grid # 7    10106
  grid # 8     5206
   
  end of program grid
   
 Time(grid)  user:        1.4  user+sys:        1.4  wallclock:        1.7
  
  start of program rwr
  
  end of program rwr
   
 Time(rwr)  user:        0.5  user+sys:        0.5  wallclock:        0.7
  
  start of program scf
  
 Energy computed with NOPS off.
 Convergence Criterion:
    Energy (econv):       1.00E-05
    RMS density (dconv):  5.00E-06
  
       i  u  d  i  g                   
       t  p  i  c  r                                 RMS    maximum
       e  d  i  u  i                       energy  density   DIIS  
       r  t  s  t  d       total energy    change  change    error 
  
etot    1  N  N  2  U    -270.14708736188           1.2E-03  1.2E-02
etot    2  Y  Y  6  M    -270.15925091550  1.2E-02  1.0E-04  9.0E-04
etot    3  N  Y  2  U    -270.15919454665 -5.6E-05  6.1E-05  6.8E-04
etot    4  Y  Y  6  M    -270.15921229113  1.8E-05  2.7E-05  5.6E-04
etot    5  N  Y  2  U    -270.15922603728  1.4E-05  5.9E-06  6.8E-05
etot    6  N  Y  2  U    -270.15922628017  2.4E-07  3.5E-06  2.5E-05
etot    7  N  N  2  U    -270.15922630145  2.1E-08  0.0E+00  0.0E+00
 
  Computing the dispersion energy correction and its gradients...
  
  
 Energy components, in hartrees:
   (A)  Nuclear repulsion............     215.92217917254
   (E)  Total one-electron terms.....    -792.76590191330
   (I)  Total two-electron terms.....     306.68449643931
   (J)    Coulomb....................     344.91126676636
   (K)    Exchange+Correlation.......     -38.22677032706
   (L)  Electronic energy............    -486.08140547400  (E+I)
   (N0) D3 correction................      -0.00392482530
   (N)  Total energy.................    -270.16315112675  (A+L+N0)
   (O)  Gas phase energy.............    -270.16315112675
  
 SCFE: SCF energy: DFT(pbe-d3)      -270.16315112675 hartrees   iterations:   7
  
 
 HOMO energy:    -0.17659
 LUMO energy:    -0.03687
 
  Orbital energies (hartrees): 
   -18.79640    -9.95845    -9.94235    -9.91269    -9.90725    -9.87152
    -0.96099    -0.72291    -0.66879    -0.60922    -0.51423    -0.50738
    -0.45495    -0.43314    -0.40520    -0.36683    -0.36188    -0.33694
    -0.31238    -0.28993    -0.27979    -0.24152    -0.17659    -0.03687
     0.01021     0.07527     0.08165     0.09946     0.11905     0.12886
     0.13396     0.14754     0.15961
 
  end of program scf
   
 Time(scf)  user:        5.2  user+sys:        5.2  wallclock:        6.1
  
  start of program der1a
  
  end of program der1a
   
 Time(der1a)  user:        0.2  user+sys:        0.2  wallclock:        0.4
  
  start of program rwr
  
  end of program rwr
   
 Time(rwr)  user:        0.5  user+sys:        0.5  wallclock:        0.8
  
  start of program der1b
  
   
  forces (hartrees/bohr) : total     
   
 atom  label           x              y              z
 ---- --------   -------------  -------------  -------------
    1 C1          1.948764E-04   3.413870E-04   8.502073E-04
    2 C2         -1.817609E-03   4.227193E-04  -1.936674E-03
    3 C8          2.809787E-04  -2.030423E-03  -5.442853E-04
    4 O9          3.571220E-03   2.358001E-03  -1.070267E-03
    5 H5         -3.713577E-04  -6.023375E-04   2.034861E-03
    6 H6         -6.929853E-04   7.397634E-04  -9.843074E-05
    7 C12         4.478756E-04  -4.118191E-04   2.125257E-03
    8 C13        -1.892107E-04  -4.699812E-04  -7.837269E-05
    9 H9         -1.176662E-03  -9.025604E-04  -1.397322E-03
   10 H10        -1.664431E-04  -3.176325E-04   8.966300E-04
   11 H11        -1.317535E-05   4.067372E-04  -3.291293E-04
   12 H12         3.375860E-05   4.693176E-05  -8.537190E-05
   13 H13         8.073186E-05   1.325219E-04   3.301075E-06
   14 H14        -2.253569E-04   3.690386E-04  -2.421737E-04
 -------------   -------------  -------------  -------------
     total       -4.335843E-05   8.234673E-05   1.282299E-04
   
  end of program der1b
   
 Time(der1b)  user:        1.4  user+sys:        1.4  wallclock:        1.6
  
  start of program geopt
  
 ----------------------------------------------------------------------------
  Geometry optimization step   3
  Total energy:      -270.16315112675 hartrees
 ----------------------------------------------------------------------------
  
  
  Level shifts adjusted to satisfy step-size constraints
   Step size:    0.3000228
   Cos(theta):   0.2896112
   Final level shift:  -7.0443144E-03
  
  energy change:          -9.4191E-04 .  (  5.0000E-05 )
  gradient maximum:        6.7680E-03 .  (  4.5000E-04 )
  gradient rms:            2.0111E-03 .  (  3.0000E-04 )
  displacement maximum:    1.6851E-01 .  (  1.8000E-03 )
  displacement rms:        5.0004E-02 .  (  1.2000E-03 )
  
  predicted energy change:  -8.4127E-04
  step size:     0.30002
  trust radius:  0.30000
  
  molecular structure not yet converged...
  
  center of mass moved by:
     x:    -1.7175E-03     y:     7.5303E-03     z:    -1.1797E-02
  
  new geometry: 
                                   angstroms
  atom               x                 y                 z
  C1            0.7638749532      2.9871883861      0.2884140241 
  C2            0.7791983750      1.7011458915     -0.0944811403 
  C8           -0.4424816912      0.8311583254     -0.0656779727 
  O9           -0.8137350498      0.4962636548     -1.4208376320 
  H5           -0.2489765783     -0.1120091480      0.4820045195 
  H6           -1.2698191146      1.3666860709      0.4360313860 
  C12          -2.1403421203      0.2780107827     -1.6475050937 
  C13          -2.6075851701     -0.1573366790     -2.8287295341 
  H9            1.7067644642      1.2573633125     -0.4747904398 
  H10           1.6576266640      3.6168045480      0.2455517871 
  H11          -0.1541233300      3.4571040582      0.6586240619 
  H12          -3.6808060851     -0.2912595471     -2.9650945424 
  H13          -1.9390918719     -0.3789927781     -3.6625203800 
  H14          -2.8070942022      0.4910823610     -0.7981464341 
   
  nuclear repulsion energy.......           215.911633131 hartrees
  -------------------------------------------------
 /  end of geometry optimization iteration   3   /
 -------------------------------------------------
   
  end of program geopt
   
 Time(geopt)  user:        0.3  user+sys:        0.3  wallclock:        0.4
  
  start of program onee
  
  smallest eigenvalue of S:    4.058E-03
  number of canonical orbitals.....          130
  end of program onee
   
 Time(onee)  user:        0.3  user+sys:        0.3  wallclock:        0.4
  
  start of program probe
  
  end of program probe
   
 Time(probe)  user:        0.2  user+sys:        0.2  wallclock:        0.3
  
  start of program grid
  
   grid     grid set  grid #  grid sym
  ------    --------  ------  --------
  coarse        0        0        1
  medium        2        1        1
  fine          0        0        1
  ultrafine     4        2        1
  charge        0        0        1
  gradient      4        2        1
  density       0        0        1
  DFT-fine    -11        3        1
  DFT-med.    -10        4        1
  DFT-grad    -12        5        1
  DFT-der2     -8        6        1
  DFT-cphf     -9        7        1
  LMP2-enrg     4        2        1
  LMP2-grad     2        1        1
  DFT-cphf2   -15        8        1
  PBF-dens      0        0        1
  plotting      0        0        1
  Rel-grad    -17        0        1
  
  number of gridpoints: 
     atom        C1       C2       C8       O9       H5       H6      C12
  grid # 1       87       95       86      115      111      106       95
  grid # 2      316      339      285      457      451      428      338
  grid # 3     4304     4304     4304     4304     4304     4304     4304
  grid # 4     1192     1192     1192     1192     1192     1192     1192
  grid # 5     5226     5226     5226     5226     5226     5226     5226
  grid # 6    12650    12650    12650    23504    13718    13718    12650
  grid # 7      688      688      688      714      744      744      688
  grid # 8      358      358      358      360      382      382      358
   
  number of gridpoints: 
     atom       C13       H9      H10      H11      H12      H13      H14
  grid # 1       87      117      118      116      118      118      112
  grid # 2      318      450      456      447      456      458      440
  grid # 3     4304     4304     4304     4304     4304     4304     4304
  grid # 4     1192     1192     1192     1192     1192     1192     1192
  grid # 5     5226     5226     5226     5226     5226     5226     5226
  grid # 6    12650    13718    13718    13718    13718    13718    13718
  grid # 7      688      744      744      744      744      744      744
  grid # 8      358      382      382      382      382      382      382
   
  number of gridpoints: 
     atom     total
  grid # 1     1481
  grid # 2     5639
  grid # 3    60256
  grid # 4    16688
  grid # 5    73164
  grid # 6   196498
  grid # 7    10106
  grid # 8     5206
   
  end of program grid
   
 Time(grid)  user:        1.4  user+sys:        1.4  wallclock:        1.7
  
  start of program rwr
  
  end of program rwr
   
 Time(rwr)  user:        0.5  user+sys:        0.5  wallclock:        0.6
  
  start of program scf
  
 Energy computed with NOPS off.
 Convergence Criterion:
    Energy (econv):       1.00E-05
    RMS density (dconv):  5.00E-06
  
       i  u  d  i  g                   
       t  p  i  c  r                                 RMS    maximum
       e  d  i  u  i                       energy  density   DIIS  
       r  t  s  t  d       total energy    change  change    error 
  
etot    1  N  N  2  U    -270.14846910498           1.2E-03  1.3E-02
etot    2  Y  Y  6  M    -270.16009763386  1.2E-02  1.1E-04  9.1E-04
etot    3  N  Y  2  U    -270.16005157363 -4.6E-05  7.2E-05  1.0E-03
etot    4  Y  Y  6  M    -270.16008783457  3.6E-05  2.8E-05  5.9E-04
etot    5  N  Y  2  U    -270.16010567552  1.8E-05  6.0E-06  6.5E-05
etot    6  N  Y  2  U    -270.16010590721  2.3E-07  3.6E-06  4.3E-05
etot    7  N  N  2  U    -270.16010596300  5.6E-08  0.0E+00  0.0E+00
 
  Computing the dispersion energy correction and its gradients...
  
  
 Energy components, in hartrees:
   (A)  Nuclear repulsion............     215.91163313106
   (E)  Total one-electron terms.....    -792.72481278972
   (I)  Total two-electron terms.....     306.65307369566
   (J)    Coulomb....................     344.88281094983
   (K)    Exchange+Correlation.......     -38.22973725417
   (L)  Electronic energy............    -486.07173909406  (E+I)
   (N0) D3 correction................      -0.00390006479
   (N)  Total energy.................    -270.16400602779  (A+L+N0)
   (O)  Gas phase energy.............    -270.16400602779
  
 SCFE: SCF energy: DFT(pbe-d3)      -270.16400602779 hartrees   iterations:   7
  
 
 HOMO energy:    -0.17746
 LUMO energy:    -0.03470
 
  Orbital energies (hartrees): 
   -18.79717    -9.95852    -9.94257    -9.91246    -9.90686    -9.87206
    -0.96286    -0.72398    -0.66884    -0.60897    -0.51621    -0.50606
    -0.45659    -0.43247    -0.40538    -0.36874    -0.36095    -0.33788
    -0.31321    -0.29127    -0.28044    -0.24032    -0.17746    -0.03470
     0.00936     0.07208     0.08302     0.09964     0.11979     0.12893
     0.13337     0.14728     0.15974
 
  end of program scf
   
 Time(scf)  user:        5.1  user+sys:        5.1  wallclock:        6.0
  
  start of program der1a
  
  end of program der1a
   
 Time(der1a)  user:        0.2  user+sys:        0.2  wallclock:        0.3
  
  start of program rwr
  
  end of program rwr
   
 Time(rwr)  user:        0.5  user+sys:        0.5  wallclock:        0.7
  
  start of program der1b
  
   
  forces (hartrees/bohr) : total     
   
 atom  label           x              y              z
 ---- --------   -------------  -------------  -------------
    1 C1          3.590596E-04  -9.427136E-04   3.731489E-04
    2 C2         -1.163205E-04   3.915446E-03  -1.140099E-03
    3 C8         -4.084439E-04  -1.901183E-03  -1.739502E-03
    4 O9          3.380960E-03   1.805663E-03  -5.382225E-04
    5 H5         -4.048855E-04  -4.824557E-05   1.769886E-03
    6 H6         -8.352218E-04  -2.885713E-04   7.915971E-04
    7 C12        -1.293139E-03  -1.228827E-03   8.329442E-04
    8 C13        -3.065342E-04  -2.713676E-04   3.765504E-04
    9 H9         -8.217002E-04  -1.418990E-03  -4.463385E-04
   10 H10        -3.628104E-05  -4.338052E-04   5.341215E-04
   11 H11         2.315910E-04   4.082120E-04   6.812135E-05
   12 H12         3.653938E-05   8.155749E-05  -1.870974E-04
   13 H13         1.514541E-04   1.192969E-04  -7.672774E-05
   14 H14        -4.173133E-05   2.744755E-04  -4.661075E-04
 -------------   -------------  -------------  -------------
     total       -1.046539E-04   7.094791E-05   1.522744E-04
   
  end of program der1b
   
 Time(der1b)  user:        1.2  user+sys:        1.2  wallclock:        1.4
  
  start of program geopt
  
 ----------------------------------------------------------------------------
  Geometry optimization step   4
  Total energy:      -270.16400602779 hartrees
 ----------------------------------------------------------------------------
  
  
  Level shifts adjusted to satisfy step-size constraints
   Step size:    0.3003229
   Cos(theta):   0.3637576
   Final level shift:  -4.2104876E-03
  
  energy change:          -8.5490E-04 .  (  5.0000E-05 )
  gradient maximum:        3.5234E-03 .  (  4.5000E-04 )
  gradient rms:            1.2319E-03 .  (  3.0000E-04 )
  displacement maximum:    1.5841E-01 .  (  1.8000E-03 )
  displacement rms:        5.0053E-02 .  (  1.2000E-03 )
  
  predicted energy change:  -5.9361E-04
  step size:     0.30032
  trust radius:  0.30000
  
  molecular structure not yet converged...
  
  center of mass moved by:
     x:    -9.5458E-03     y:     2.2442E-02     z:    -1.4904E-02
  
  new geometry: 
                                   angstroms
  atom               x                 y                 z
  C1            0.8366609658      2.9635614741      0.3856195105 
  C2            0.7646540793      1.7267146625     -0.1293161420 
  C8           -0.4795452205      0.8935137081     -0.0934786153 
  O9           -0.8348021690      0.5481692540     -1.4488464520 
  H5           -0.3198490830     -0.0446370062      0.4766893231 
  H6           -1.2995500683      1.4600685783      0.3880789119 
  C12          -2.1490999424      0.2500796534     -1.6599669420 
  C13          -2.5977659852     -0.2492288805     -2.8227729635 
  H9            1.6361602299      1.2889128938     -0.6300061206 
  H10           1.7566874422      3.5537660309      0.3492891442 
  H11          -0.0297902169      3.4305918170      0.8669793042 
  H12          -3.6638102804     -0.4376815089     -2.9508367250 
  H13          -1.9211896753     -0.4668320908     -3.6512659059 
  H14          -2.8246304509      0.4599502658     -0.8169076364 
   
  nuclear repulsion energy.......           215.638761231 hartrees
  -------------------------------------------------
 /  end of geometry optimization iteration   4   /
 -------------------------------------------------
   
  end of program geopt
   
 Time(geopt)  user:        0.2  user+sys:        0.2  wallclock:        0.4
  
  start of program onee
  
  smallest eigenvalue of S:    3.920E-03
  number of canonical orbitals.....          130
  end of program onee
   
 Time(onee)  user:        0.2  user+sys:        0.2  wallclock:        0.3
  
  start of program probe
  
  end of program probe
   
 Time(probe)  user:        0.2  user+sys:        0.2  wallclock:        0.3
  
  start of program grid
  
   grid     grid set  grid #  grid sym
  ------    --------  ------  --------
  coarse        0        0        1
  medium        2        1        1
  fine          0        0        1
  ultrafine     4        2        1
  charge        0        0        1
  gradient      4        2        1
  density       0        0        1
  DFT-fine    -11        3        1
  DFT-med.    -10        4        1
  DFT-grad    -12        5        1
  DFT-der2     -8        6        1
  DFT-cphf     -9        7        1
  LMP2-enrg     4        2        1
  LMP2-grad     2        1        1
  DFT-cphf2   -15        8        1
  PBF-dens      0        0        1
  plotting      0        0        1
  Rel-grad    -17        0        1
  
  number of gridpoints: 
     atom        C1       C2       C8       O9       H5       H6      C12
  grid # 1       87       94       86      115      111      106       95
  grid # 2      317      338      287      453      449      429      338
  grid # 3     4304     4304     4304     4304     4304     4304     4304
  grid # 4     1192     1192     1192     1192     1192     1192     1192
  grid # 5     5226     5226     5226     5226     5226     5226     5226
  grid # 6    12650    12650    12650    23504    13718    13718    12650
  grid # 7      688      688      688      714      744      744      688
  grid # 8      358      358      358      360      382      382      358
   
  number of gridpoints: 
     atom       C13       H9      H10      H11      H12      H13      H14
  grid # 1       87      117      118      118      118      118      112
  grid # 2      318      451      456      447      456      458      440
  grid # 3     4304     4304     4304     4304     4304     4304     4304
  grid # 4     1192     1192     1192     1192     1192     1192     1192
  grid # 5     5226     5226     5226     5226     5226     5226     5226
  grid # 6    12650    13718    13718    13718    13718    13718    13718
  grid # 7      688      744      744      744      744      744      744
  grid # 8      358      382      382      382      382      382      382
   
  number of gridpoints: 
     atom     total
  grid # 1     1482
  grid # 2     5637
  grid # 3    60256
  grid # 4    16688
  grid # 5    73164
  grid # 6   196498
  grid # 7    10106
  grid # 8     5206
   
  end of program grid
   
 Time(grid)  user:        1.4  user+sys:        1.4  wallclock:        1.6
  
  start of program rwr
  
  end of program rwr
   
 Time(rwr)  user:        0.5  user+sys:        0.5  wallclock:        0.7
  
  start of program scf
  
 Energy computed with NOPS off.
 Convergence Criterion:
    Energy (econv):       1.00E-05
    RMS density (dconv):  5.00E-06
  
       i  u  d  i  g                   
       t  p  i  c  r                                 RMS    maximum
       e  d  i  u  i                       energy  density   DIIS  
       r  t  s  t  d       total energy    change  change    error 
  
etot    1  N  N  2  U    -270.14721402455           1.2E-03  1.4E-02
etot    2  Y  Y  6  M    -270.16069320637  1.3E-02  1.2E-04  1.0E-03
etot    3  N  Y  2  U    -270.16069211950 -1.1E-06  8.6E-05  1.6E-03
etot    4  Y  Y  6  M    -270.16074593649  5.4E-05  3.3E-05  8.0E-04
etot    5  N  Y  2  U    -270.16077304255  2.7E-05  7.6E-06  6.2E-05
etot    6  N  Y  2  U    -270.16077311789  7.5E-08  4.7E-06  7.5E-05
etot    7  N  N  2  U    -270.16077329325  1.8E-07  0.0E+00  0.0E+00
 
  Computing the dispersion energy correction and its gradients...
  
  
 Energy components, in hartrees:
   (A)  Nuclear repulsion............     215.63876123125
   (E)  Total one-electron terms.....    -792.16747542065
   (I)  Total two-electron terms.....     306.36794089615
   (J)    Coulomb....................     344.59813897695
   (K)    Exchange+Correlation.......     -38.23019808080
   (L)  Electronic energy............    -485.79953452450  (E+I)
   (N0) D3 correction................      -0.00389078938
   (N)  Total energy.................    -270.16466408263  (A+L+N0)
   (O)  Gas phase energy.............    -270.16466408263
  
 SCFE: SCF energy: DFT(pbe-d3)      -270.16466408263 hartrees   iterations:   7
  
 
 HOMO energy:    -0.17890
 LUMO energy:    -0.03244
 
  Orbital energies (hartrees): 
   -18.79801    -9.95871    -9.94289    -9.91221    -9.90581    -9.87324
    -0.96396    -0.72403    -0.66919    -0.60893    -0.51774    -0.50448
    -0.45779    -0.43079    -0.40574    -0.37100    -0.36022    -0.33915
    -0.31323    -0.29237    -0.28076    -0.23842    -0.17890    -0.03244
     0.00805     0.06986     0.08348     0.10120     0.11910     0.12805
     0.13295     0.14807     0.15797
 
  end of program scf
   
 Time(scf)  user:        5.1  user+sys:        5.1  wallclock:        5.9
  
  start of program der1a
  
  end of program der1a
   
 Time(der1a)  user:        0.2  user+sys:        0.2  wallclock:        0.4
  
  start of program rwr
  
  end of program rwr
   
 Time(rwr)  user:        0.6  user+sys:        0.6  wallclock:        0.8
  
  start of program der1b
  
   
  forces (hartrees/bohr) : total     
   
 atom  label           x              y              z
 ---- --------   -------------  -------------  -------------
    1 C1          8.004989E-05  -1.041250E-03   2.027538E-04
    2 C2          4.373083E-04   3.870618E-03  -6.125759E-04
    3 C8         -5.497985E-04  -1.479786E-03  -2.108319E-03
    4 O9          1.929690E-03   1.666857E-03  -1.229130E-04
    5 H5         -1.473168E-04   3.152986E-04   1.293750E-03
    6 H6         -5.456634E-04  -4.825055E-04   7.706787E-04
    7 C12        -1.433511E-03  -1.437866E-03   3.586743E-04
    8 C13        -1.180196E-04  -2.401855E-04   2.584113E-04
    9 H9         -3.047628E-04  -1.372265E-03   3.044167E-04
   10 H10         7.983583E-05  -3.027069E-04   1.745230E-04
   11 H11         2.518155E-04   1.804056E-04   2.283053E-04
   12 H12         3.462409E-05   4.947315E-05  -2.025662E-04
   13 H13         9.008404E-05   1.275259E-04  -6.362544E-05
   14 H14         8.396851E-05   2.489815E-04  -3.163800E-04
 -------------   -------------  -------------  -------------
     total       -1.116967E-04   1.025944E-04   1.651332E-04
   
  end of program der1b
   
 Time(der1b)  user:        1.4  user+sys:        1.4  wallclock:        1.5
  
  start of program geopt
  
 ----------------------------------------------------------------------------
  Geometry optimization step   5
  Total energy:      -270.16466408263 hartrees
 ----------------------------------------------------------------------------
  
  
  Level shifts adjusted to satisfy step-size constraints
   Step size:    0.3000143
   Cos(theta):   0.3991122
   Final level shift:  -2.4137120E-03
  
  energy change:          -6.5805E-04 .  (  5.0000E-05 )
  gradient maximum:        2.5778E-03 .  (  4.5000E-04 )
  gradient rms:            9.2664E-04 .  (  3.0000E-04 )
  displacement maximum:    1.5693E-01 .  (  1.8000E-03 )
  displacement rms:        5.0002E-02 .  (  1.2000E-03 )
  
  predicted energy change:  -4.4149E-04
  step size:     0.30001
  trust radius:  0.30000
  
  molecular structure not yet converged...
  
  center of mass moved by:
     x:    -2.2124E-02     y:     3.9799E-02     z:    -1.5416E-02
  
  new geometry: 
                                   angstroms
  atom               x                 y                 z
  C1            0.9332858119      2.9219554332      0.4730707330 
  C2            0.7492389428      1.7535288215     -0.1577128749 
  C8           -0.5267716266      0.9700742335     -0.1204025756 
  O9           -0.8801170099      0.6336973445     -1.4764202351 
  H5           -0.4001896117      0.0329427673      0.4633464110 
  H6           -1.3324577723      1.5620311110      0.3580798256 
  C12          -2.1618733522      0.2003852197     -1.6672144106 
  C13          -2.5722198328     -0.3508818854     -2.8205322503 
  H9            1.5540041207      1.3123130310     -0.7579922407 
  H10           1.8908310478      3.4486118792      0.4403981956 
  H11           0.1329439936      3.3923080435      1.0548737825 
  H12          -3.6166363958     -0.6405044553     -2.9377289224 
  H13          -1.8857812142     -0.5078240322     -3.6547952461 
  H14          -2.8462230931      0.3534671400     -0.8195036913 
   
  nuclear repulsion energy.......           215.205810621 hartrees
  -------------------------------------------------
 /  end of geometry optimization iteration   5   /
 -------------------------------------------------
   
  end of program geopt
   
 Time(geopt)  user:        0.3  user+sys:        0.3  wallclock:        0.4
  
  start of program onee
  
  smallest eigenvalue of S:    3.783E-03
  number of canonical orbitals.....          130
  end of program onee
   
 Time(onee)  user:        0.2  user+sys:        0.2  wallclock:        0.3
  
  start of program probe
  
  end of program probe
   
 Time(probe)  user:        0.2  user+sys:        0.2  wallclock:        0.4
  
  start of program grid
  
   grid     grid set  grid #  grid sym
  ------    --------  ------  --------
  coarse        0        0        1
  medium        2        1        1
  fine          0        0        1
  ultrafine     4        2        1
  charge        0        0        1
  gradient      4        2        1
  density       0        0        1
  DFT-fine    -11        3        1
  DFT-med.    -10        4        1
  DFT-grad    -12        5        1
  DFT-der2     -8        6        1
  DFT-cphf     -9        7        1
  LMP2-enrg     4        2        1
  LMP2-grad     2        1        1
  DFT-cphf2   -15        8        1
  PBF-dens      0        0        1
  plotting      0        0        1
  Rel-grad    -17        0        1
  
  number of gridpoints: 
     atom        C1       C2       C8       O9       H5       H6      C12
  grid # 1       87       94       87      115      110      108       95
  grid # 2      317      338      285      453      452      428      338
  grid # 3     4304     4304     4304     4304     4304     4304     4304
  grid # 4     1192     1192     1192     1192     1192     1192     1192
  grid # 5     5226     5226     5226     5226     5226     5226     5226
  grid # 6    12650    12650    12650    23504    13718    13718    12650
  grid # 7      688      688      688      714      744      744      688
  grid # 8      358      358      358      360      382      382      358
   
  number of gridpoints: 
     atom       C13       H9      H10      H11      H12      H13      H14
  grid # 1       87      117      118      117      118      118      114
  grid # 2      318      448      456      450      456      458      440
  grid # 3     4304     4304     4304     4304     4304     4304     4304
  grid # 4     1192     1192     1192     1192     1192     1192     1192
  grid # 5     5226     5226     5226     5226     5226     5226     5226
  grid # 6    12650    13718    13718    13718    13718    13718    13718
  grid # 7      688      744      744      744      744      744      744
  grid # 8      358      382      382      382      382      382      382
   
  number of gridpoints: 
     atom     total
  grid # 1     1485
  grid # 2     5637
  grid # 3    60256
  grid # 4    16688
  grid # 5    73164
  grid # 6   196498
  grid # 7    10106
  grid # 8     5206
   
  end of program grid
   
 Time(grid)  user:        1.4  user+sys:        1.4  wallclock:        1.7
  
  start of program rwr
  
  end of program rwr
   
 Time(rwr)  user:        0.7  user+sys:        0.7  wallclock:        0.9
  
  start of program scf
  
 Energy computed with NOPS off.
 Convergence Criterion:
    Energy (econv):       1.00E-05
    RMS density (dconv):  5.00E-06
  
       i  u  d  i  g                   
       t  p  i  c  r                                 RMS    maximum
       e  d  i  u  i                       energy  density   DIIS  
       r  t  s  t  d       total energy    change  change    error 
  
etot    1  N  N  2  U    -270.14313841930           1.4E-03  1.4E-02
etot    2  Y  Y  6  M    -270.16103846037  1.8E-02  1.5E-04  1.5E-03
etot    3  N  Y  2  U    -270.16108294939  4.4E-05  1.2E-04  1.8E-03
etot    4  Y  Y  6  M    -270.16117885929  9.6E-05  5.0E-05  1.0E-03
etot    5  N  Y  2  U    -270.16122568682  4.7E-05  1.0E-05  2.6E-04
etot    6  N  Y  2  U    -270.16122718671  1.5E-06  5.1E-06  6.7E-05
etot    7  N  Y  2  U    -270.16122726757  8.1E-08  2.6E-06  2.8E-05
etot    8  N  N  2  U    -270.16122729974  3.2E-08  0.0E+00  0.0E+00
 
  Computing the dispersion energy correction and its gradients...
  
  
 Energy components, in hartrees:
   (A)  Nuclear repulsion............     215.20581062058
   (E)  Total one-electron terms.....    -791.29904649038
   (I)  Total two-electron terms.....     305.93200857006
   (J)    Coulomb....................     344.16081731782
   (K)    Exchange+Correlation.......     -38.22880874777
   (L)  Electronic energy............    -485.36703792032  (E+I)
   (N0) D3 correction................      -0.00390285679
   (N)  Total energy.................    -270.16513015653  (A+L+N0)
   (O)  Gas phase energy.............    -270.16513015653
  
 SCFE: SCF energy: DFT(pbe-d3)      -270.16513015653 hartrees   iterations:   8
  
 
 HOMO energy:    -0.18062
 LUMO energy:    -0.03058
 
  Orbital energies (hartrees): 
   -18.79864    -9.95892    -9.94366    -9.91158    -9.90451    -9.87458
    -0.96421    -0.72362    -0.66972    -0.60901    -0.51840    -0.50324
    -0.45868    -0.42862    -0.40600    -0.37364    -0.35958    -0.34040
    -0.31260    -0.29328    -0.27988    -0.23633    -0.18062    -0.03058
     0.00637     0.06894     0.08412     0.10273     0.11793     0.12759
     0.13217     0.14993     0.15457
 
  end of program scf
   
 Time(scf)  user:        5.7  user+sys:        5.7  wallclock:        6.8
  
  start of program der1a
  
  end of program der1a
   
 Time(der1a)  user:        0.2  user+sys:        0.2  wallclock:        0.4
  
  start of program rwr
  
  end of program rwr
   
 Time(rwr)  user:        0.5  user+sys:        0.5  wallclock:        0.8
  
  start of program der1b
  
   
  forces (hartrees/bohr) : total     
   
 atom  label           x              y              z
 ---- --------   -------------  -------------  -------------
    1 C1         -3.647151E-05  -4.499399E-04   4.375998E-04
    2 C2          3.609345E-04   1.604287E-03  -8.859456E-04
    3 C8         -1.700991E-03  -8.744246E-04  -1.122712E-03
    4 O9          7.809207E-04   8.982957E-04  -6.699900E-04
    5 H5          5.973993E-05   3.736054E-04   1.861059E-04
    6 H6         -1.955683E-04  -2.205479E-04   3.089193E-04
    7 C12        -3.024444E-04  -7.290573E-04   1.010228E-03
    8 C13         2.496260E-04  -5.352660E-05   2.189190E-04
    9 H9          3.820537E-04  -6.729050E-04   7.708656E-04
   10 H10         5.153397E-05  -1.426051E-05  -1.145408E-04
   11 H11         6.334903E-05  -1.166294E-04   1.632935E-04
   12 H12         1.540467E-05   1.037496E-05  -9.695351E-05
   13 H13         6.034484E-05   1.197288E-04  -4.268233E-05
   14 H14         1.308210E-04   1.960981E-04   2.112963E-05
 -------------   -------------  -------------  -------------
     total       -8.074700E-05   7.109890E-05   1.842364E-04
   
  end of program der1b
   
 Time(der1b)  user:        1.2  user+sys:        1.2  wallclock:        1.4
  
  start of program geopt
  
 ----------------------------------------------------------------------------
  Geometry optimization step   6
  Total energy:      -270.16513015653 hartrees
 ----------------------------------------------------------------------------
  
  energy change:          -4.6607E-04 .  (  5.0000E-05 )
  gradient maximum:        2.8166E-03 .  (  4.5000E-04 )
  gradient rms:            8.3906E-04 .  (  3.0000E-04 )
  displacement maximum:    1.2737E-01 .  (  1.8000E-03 )
  displacement rms:        2.7540E-02 .  (  1.2000E-03 )
  
  predicted energy change:  -1.3224E-04
  step size:     0.16524
  trust radius:  0.30000
  
  molecular structure not yet converged...
  
  center of mass moved by:
     x:    -1.9590E-02     y:     3.1009E-02     z:    -8.8288E-03
  
  new geometry: 
                                   angstroms
  atom               x                 y                 z
  C1            0.9949663644      2.8901137604      0.5107152743 
  C2            0.7424986102      1.7636203677     -0.1685280385 
  C8           -0.5601578285      1.0197677199     -0.1353054991 
  O9           -0.9206188499      0.6990513536     -1.4908324600 
  H5           -0.4547615445      0.0800783599      0.4498707486 
  H6           -1.3524826999      1.6253806607      0.3508494409 
  C12          -2.1654784833      0.1600297428     -1.6654749060 
  C13          -2.5482539263     -0.4065130883     -2.8205449241 
  H9            1.5134507215      1.3059696851     -0.8009096067 
  H10           1.9775015047      3.3684205020      0.4795119864 
  H11           0.2334998917      3.3707846606      1.1344079336 
  H12          -3.5671259025     -0.7791770602     -2.9282146065 
  H13          -1.8648916566     -0.4912976316     -3.6678270769 
  H14          -2.8449779110      0.2461509118     -0.8048455636 
   
  nuclear repulsion energy.......           214.958063250 hartrees
  -------------------------------------------------
 /  end of geometry optimization iteration   6   /
 -------------------------------------------------
   
  end of program geopt
   
 Time(geopt)  user:        0.3  user+sys:        0.3  wallclock:        0.4
  
  start of program onee
  
  smallest eigenvalue of S:    3.716E-03
  number of canonical orbitals.....          130
  end of program onee
   
 Time(onee)  user:        0.2  user+sys:        0.2  wallclock:        0.3
  
  start of program probe
  
  end of program probe
   
 Time(probe)  user:        0.2  user+sys:        0.2  wallclock:        0.3
  
  start of program grid
  
   grid     grid set  grid #  grid sym
  ------    --------  ------  --------
  coarse        0        0        1
  medium        2        1        1
  fine          0        0        1
  ultrafine     4        2        1
  charge        0        0        1
  gradient      4        2        1
  density       0        0        1
  DFT-fine    -11        3        1
  DFT-med.    -10        4        1
  DFT-grad    -12        5        1
  DFT-der2     -8        6        1
  DFT-cphf     -9        7        1
  LMP2-enrg     4        2        1
  LMP2-grad     2        1        1
  DFT-cphf2   -15        8        1
  PBF-dens      0        0        1
  plotting      0        0        1
  Rel-grad    -17        0        1
  
  number of gridpoints: 
     atom        C1       C2       C8       O9       H5       H6      C12
  grid # 1       87       94       88      115      110      111       93
  grid # 2      317      335      287      452      451      430      337
  grid # 3     4304     4304     4304     4304     4304     4304     4304
  grid # 4     1192     1192     1192     1192     1192     1192     1192
  grid # 5     5226     5226     5226     5226     5226     5226     5226
  grid # 6    12650    12650    12650    23504    13718    13718    12650
  grid # 7      688      688      688      714      744      744      688
  grid # 8      358      358      358      360      382      382      358
   
  number of gridpoints: 
     atom       C13       H9      H10      H11      H12      H13      H14
  grid # 1       87      117      118      118      118      118      113
  grid # 2      318      447      456      450      456      458      440
  grid # 3     4304     4304     4304     4304     4304     4304     4304
  grid # 4     1192     1192     1192     1192     1192     1192     1192
  grid # 5     5226     5226     5226     5226     5226     5226     5226
  grid # 6    12650    13718    13718    13718    13718    13718    13718
  grid # 7      688      744      744      744      744      744      744
  grid # 8      358      382      382      382      382      382      382
   
  number of gridpoints: 
     atom     total
  grid # 1     1487
  grid # 2     5634
  grid # 3    60256
  grid # 4    16688
  grid # 5    73164
  grid # 6   196498
  grid # 7    10106
  grid # 8     5206
   
  end of program grid
   
 Time(grid)  user:        1.4  user+sys:        1.4  wallclock:        1.6
  
  start of program rwr
  
  end of program rwr
   
 Time(rwr)  user:        0.5  user+sys:        0.5  wallclock:        0.7
  
  start of program scf
  
 Energy computed with NOPS off.
 Convergence Criterion:
    Energy (econv):       1.00E-05
    RMS density (dconv):  5.00E-06
  
       i  u  d  i  g                   
       t  p  i  c  r                                 RMS    maximum
       e  d  i  u  i                       energy  density   DIIS  
       r  t  s  t  d       total energy    change  change    error 
  
etot    1  N  N  2  U    -270.15351869852           9.2E-04  8.7E-03
etot    2  Y  Y  6  M    -270.16121119955  7.7E-03  1.0E-04  1.2E-03
etot    3  N  Y  2  U    -270.16129868451  8.7E-05  7.7E-05  8.8E-04
etot    4  Y  Y  6  M    -270.16132486636  2.6E-05  3.4E-05  6.3E-04
etot    5  N  Y  2  U    -270.16134748144  2.3E-05  7.1E-06  1.8E-04
etot    6  N  Y  2  U    -270.16134826584  7.8E-07  3.0E-06  4.3E-05
etot    7  N  N  2  U    -270.16134829904  3.3E-08  0.0E+00  0.0E+00
 
  Computing the dispersion energy correction and its gradients...
  
  
 Energy components, in hartrees:
   (A)  Nuclear repulsion............     214.95806325026
   (E)  Total one-electron terms.....    -790.80510690047
   (I)  Total two-electron terms.....     305.68569535117
   (J)    Coulomb....................     343.91346710672
   (K)    Exchange+Correlation.......     -38.22777175555
   (L)  Electronic energy............    -485.11941154930  (E+I)
   (N0) D3 correction................      -0.00391464587
   (N)  Total energy.................    -270.16526294491  (A+L+N0)
   (O)  Gas phase energy.............    -270.16526294491
  
 SCFE: SCF energy: DFT(pbe-d3)      -270.16526294491 hartrees   iterations:   7
  
 
 HOMO energy:    -0.18155
 LUMO energy:    -0.02971
 
  Orbital energies (hartrees): 
   -18.79847    -9.95897    -9.94392    -9.91160    -9.90367    -9.87565
    -0.96427    -0.72303    -0.67016    -0.60901    -0.51842    -0.50293
    -0.45894    -0.42741    -0.40607    -0.37543    -0.35887    -0.34104
    -0.31181    -0.29365    -0.27906    -0.23552    -0.18155    -0.02971
     0.00532     0.06964     0.08469     0.10284     0.11727     0.12792
     0.13152     0.15038     0.15322
 
  end of program scf
   
 Time(scf)  user:        5.1  user+sys:        5.1  wallclock:        6.1
  
  start of program der1a
  
  end of program der1a
   
 Time(der1a)  user:        0.2  user+sys:        0.2  wallclock:        0.4
  
  start of program rwr
  
  end of program rwr
   
 Time(rwr)  user:        0.5  user+sys:        0.5  wallclock:        0.7
  
  start of program der1b
  
   
  forces (hartrees/bohr) : total     
   
 atom  label           x              y              z
 ---- --------   -------------  -------------  -------------
    1 C1          8.525613E-06   1.461741E-04   7.405178E-04
    2 C2         -8.558843E-04  -1.024168E-03  -1.376938E-03
    3 C8         -1.298465E-03  -1.643056E-04   6.423249E-04
    4 O9          6.285308E-04   3.391206E-04  -1.478232E-03
    5 H5          1.601946E-04   1.357688E-04  -4.248962E-04
    6 H6          2.494259E-04   2.028869E-04  -2.354153E-04
    7 C12         2.887756E-04   9.881131E-05   1.469673E-03
    8 C13         2.983455E-04   6.941389E-05   3.069635E-05
    9 H9          4.693271E-04   5.341181E-05   6.913963E-04
   10 H10         1.809427E-05   1.494194E-04  -7.374076E-05
   11 H11        -1.820243E-04  -7.526448E-05  -3.272589E-05
   12 H12         8.260989E-05  -2.646242E-05   2.027124E-05
   13 H13         1.405998E-05   9.793639E-05  -2.430637E-06
   14 H14         6.978301E-05   4.086127E-05   1.975595E-04
 -------------   -------------  -------------  -------------
     total       -4.870179E-05   4.360369E-05   1.680602E-04
   
  end of program der1b
   
 Time(der1b)  user:        1.2  user+sys:        1.2  wallclock:        1.4
  
  start of program geopt
  
 ----------------------------------------------------------------------------
  Geometry optimization step   7
  Total energy:      -270.16526294491 hartrees
 ----------------------------------------------------------------------------
  
  energy change:          -1.3279E-04 .  (  5.0000E-05 )
  gradient maximum:        4.2489E-03 .  (  4.5000E-04 )
  gradient rms:            9.1334E-04 .  (  3.0000E-04 )
  displacement maximum:    3.5358E-02 .  (  1.8000E-03 )
  displacement rms:        9.5177E-03 .  (  1.2000E-03 )
  
  predicted energy change:  -5.8077E-05
  step size:     0.05711
  trust radius:  0.30000
  
  molecular structure not yet converged...
  
  center of mass moved by:
     x:     1.1755E-03     y:     4.0033E-03     z:    -4.3248E-03
  
  new geometry: 
                                   angstroms
  atom               x                 y                 z
  C1            0.9899454730      2.8911100673      0.5073754037 
  C2            0.7450490004      1.7560028792     -0.1599703343 
  C8           -0.5625133182      1.0184225862     -0.1411291189 
  O9           -0.9178883595      0.7075849004     -1.4996706915 
  H5           -0.4625867720      0.0757274797      0.4395812680 
  H6           -1.3546532975      1.6236131556      0.3458890701 
  C12          -2.1587495803      0.1542204757     -1.6600516490 
  C13          -2.5530812684     -0.4016532605     -2.8162496219 
  H9            1.5292893473      1.2802989593     -0.7621407749 
  H10           1.9760483819      3.3629715104      0.4889469044 
  H11           0.2185377994      3.3857288695      1.1074503274 
  H12          -3.5678637072     -0.7882476206     -2.9123839855 
  H13          -1.8831320829     -0.4631454553     -3.6761280931 
  H14          -2.8239414433      0.2200879713     -0.7866065395 
   
  nuclear repulsion energy.......           215.054201465 hartrees
  -------------------------------------------------
 /  end of geometry optimization iteration   7   /
 -------------------------------------------------
   
  end of program geopt
   
 Time(geopt)  user:        0.3  user+sys:        0.3  wallclock:        0.4
  
  start of program onee
  
  smallest eigenvalue of S:    3.710E-03
  number of canonical orbitals.....          130
  end of program onee
   
 Time(onee)  user:        0.2  user+sys:        0.2  wallclock:        0.3
  
  start of program probe
  
  end of program probe
   
 Time(probe)  user:        0.2  user+sys:        0.2  wallclock:        0.4
  
  start of program grid
  
   grid     grid set  grid #  grid sym
  ------    --------  ------  --------
  coarse        0        0        1
  medium        2        1        1
  fine          0        0        1
  ultrafine     4        2        1
  charge        0        0        1
  gradient      4        2        1
  density       0        0        1
  DFT-fine    -11        3        1
  DFT-med.    -10        4        1
  DFT-grad    -12        5        1
  DFT-der2     -8        6        1
  DFT-cphf     -9        7        1
  LMP2-enrg     4        2        1
  LMP2-grad     2        1        1
  DFT-cphf2   -15        8        1
  PBF-dens      0        0        1
  plotting      0        0        1
  Rel-grad    -17        0        1
  
  number of gridpoints: 
     atom        C1       C2       C8       O9       H5       H6      C12
  grid # 1       87       94       87      116      109      111       93
  grid # 2      317      336      287      450      450      429      337
  grid # 3     4304     4304     4304     4304     4304     4304     4304
  grid # 4     1192     1192     1192     1192     1192     1192     1192
  grid # 5     5226     5226     5226     5226     5226     5226     5226
  grid # 6    12650    12650    12650    23504    13718    13718    12650
  grid # 7      688      688      688      714      744      744      688
  grid # 8      358      358      358      360      382      382      358
   
  number of gridpoints: 
     atom       C13       H9      H10      H11      H12      H13      H14
  grid # 1       87      117      118      118      118      118      112
  grid # 2      318      447      456      450      456      457      440
  grid # 3     4304     4304     4304     4304     4304     4304     4304
  grid # 4     1192     1192     1192     1192     1192     1192     1192
  grid # 5     5226     5226     5226     5226     5226     5226     5226
  grid # 6    12650    13718    13718    13718    13718    13718    13718
  grid # 7      688      744      744      744      744      744      744
  grid # 8      358      382      382      382      382      382      382
   
  number of gridpoints: 
     atom     total
  grid # 1     1485
  grid # 2     5630
  grid # 3    60256
  grid # 4    16688
  grid # 5    73164
  grid # 6   196498
  grid # 7    10106
  grid # 8     5206
   
  end of program grid
   
 Time(grid)  user:        1.4  user+sys:        1.4  wallclock:        1.6
  
  start of program rwr
  
  end of program rwr
   
 Time(rwr)  user:        0.6  user+sys:        0.6  wallclock:        0.8
  
  start of program scf
  
 Energy computed with NOPS off.
 Convergence Criterion:
    Energy (econv):       1.00E-05
    RMS density (dconv):  5.00E-06
  
       i  u  d  i  g                   
       t  p  i  c  r                                 RMS    maximum
       e  d  i  u  i                       energy  density   DIIS  
       r  t  s  t  d       total energy    change  change    error 
  
etot    1  N  N  2  U    -270.16076676237           2.7E-04  2.7E-03
etot    2  Y  Y  6  M    -270.16142849684  6.6E-04  3.2E-05  2.6E-04
etot    3  N  Y  2  U    -270.16142972418  1.2E-06  2.1E-05  2.7E-04
etot    4  N  Y  2  U    -270.16143123365  1.5E-06  9.8E-06  2.3E-04
etot    5  N  Y  2  U    -270.16143290620  1.7E-06  2.5E-06  3.5E-05
etot    6  N  N  2  U    -270.16143297831  7.2E-08  0.0E+00  0.0E+00
 
  Computing the dispersion energy correction and its gradients...
  
  
 Energy components, in hartrees:
   (A)  Nuclear repulsion............     215.05420146527
   (E)  Total one-electron terms.....    -790.99524824458
   (I)  Total two-electron terms.....     305.77961380100
   (J)    Coulomb....................     344.00796435267
   (K)    Exchange+Correlation.......     -38.22835055168
   (L)  Electronic energy............    -485.21563444358  (E+I)
   (N0) D3 correction................      -0.00391072842
   (N)  Total energy.................    -270.16534370673  (A+L+N0)
   (O)  Gas phase energy.............    -270.16534370673
  
 SCFE: SCF energy: DFT(pbe-d3)      -270.16534370673 hartrees   iterations:   6
  
 
 HOMO energy:    -0.18169
 LUMO energy:    -0.02979
 
  Orbital energies (hartrees): 
   -18.79869    -9.95870    -9.94387    -9.91150    -9.90382    -9.87564
    -0.96483    -0.72267    -0.67006    -0.60891    -0.51878    -0.50274
    -0.45874    -0.42786    -0.40609    -0.37531    -0.35836    -0.34121
    -0.31133    -0.29351    -0.28019    -0.23587    -0.18169    -0.02979
     0.00499     0.07098     0.08441     0.10230     0.11743     0.12821
     0.13145     0.15023     0.15361
 
  end of program scf
   
 Time(scf)  user:        4.9  user+sys:        4.9  wallclock:        5.7
  
  start of program der1a
  
  end of program der1a
   
 Time(der1a)  user:        0.2  user+sys:        0.2  wallclock:        0.4
  
  start of program rwr
  
  end of program rwr
   
 Time(rwr)  user:        0.5  user+sys:        0.5  wallclock:        0.8
  
  start of program der1b
  
   
  forces (hartrees/bohr) : total     
   
 atom  label           x              y              z
 ---- --------   -------------  -------------  -------------
    1 C1          9.430266E-05   2.964163E-04   6.831270E-04
    2 C2         -1.130265E-03  -1.794002E-03  -9.540742E-04
    3 C8          5.546574E-04   8.306329E-04   1.259630E-03
    4 O9         -4.042221E-04   8.901786E-05  -3.603540E-04
    5 H5          9.466870E-05  -9.157072E-05  -4.235619E-04
    6 H6          3.184412E-04   3.820621E-04  -4.124491E-04
    7 C12         1.407801E-04  -9.896381E-05   6.624286E-05
    8 C13         8.894325E-05   4.494833E-05   9.418788E-06
    9 H9          2.970337E-04   3.555305E-04   3.352069E-04
   10 H10        -3.652399E-05   1.466765E-04   2.592470E-05
   11 H11        -2.141231E-04  -1.823313E-05  -1.375355E-04
   12 H12         4.688107E-05  -5.387706E-05   5.097023E-06
   13 H13         3.146743E-05   3.091321E-05  -2.585231E-05
   14 H14         6.393481E-05  -6.863608E-05   6.164384E-05
 -------------   -------------  -------------  -------------
     total       -5.402365E-05   5.091497E-05   1.324644E-04
   
  end of program der1b
   
 Time(der1b)  user:        1.3  user+sys:        1.3  wallclock:        1.5
  
  start of program geopt
  
 ----------------------------------------------------------------------------
  Geometry optimization step   8
  Total energy:      -270.16534370673 hartrees
 ----------------------------------------------------------------------------
  
  energy change:          -8.0762E-05 .  (  5.0000E-05 )
  gradient maximum:        1.2036E-03 .  (  4.5000E-04 )
  gradient rms:            4.5875E-04 .  (  3.0000E-04 )
  displacement maximum:    7.5554E-02 .  (  1.8000E-03 )
  displacement rms:        1.4258E-02 .  (  1.2000E-03 )
  
  predicted energy change:  -5.2041E-05
  step size:     0.08555
  trust radius:  0.30000
  
  molecular structure not yet converged...
  
  center of mass moved by:
     x:    -8.0683E-03     y:     1.2772E-02     z:    -4.3462E-03
  
  new geometry: 
                                   angstroms
  atom               x                 y                 z
  C1            1.0073296239      2.8805336439      0.5102088724 
  C2            0.7496400281      1.7464207395     -0.1548038048 
  C8           -0.5731593537      1.0391794388     -0.1464124534 
  O9           -0.9366381856      0.7389285238     -1.5065300636 
  H5           -0.4911816938      0.0924744500      0.4299229875 
  H6           -1.3512365451      1.6601956513      0.3424778962 
  C12          -2.1537377510      0.1289749832     -1.6547165391 
  C13          -2.5493385551     -0.4110658730     -2.8179012217 
  H9            1.5377660382      1.2466862025     -0.7319544131 
  H10           2.0033684174      3.3319095519      0.5066678617 
  H11           0.2346436460      3.3949964614      1.0916090238 
  H12          -3.5451272470     -0.8466642946     -2.9022665439 
  H13          -1.8996337578     -0.4102184573     -3.6953176951 
  H14          -2.7984602904      0.1357536446     -0.7638735005 
   
  nuclear repulsion energy.......           214.965200281 hartrees
  -------------------------------------------------
 /  end of geometry optimization iteration   8   /
 -------------------------------------------------
   
  end of program geopt
   
 Time(geopt)  user:        0.2  user+sys:        0.2  wallclock:        0.4
  
  start of program onee
  
  smallest eigenvalue of S:    3.652E-03
  number of canonical orbitals.....          130
  end of program onee
   
 Time(onee)  user:        0.2  user+sys:        0.2  wallclock:        0.3
  
  start of program probe
  
  end of program probe
   
 Time(probe)  user:        0.2  user+sys:        0.2  wallclock:        0.3
  
  start of program grid
  
   grid     grid set  grid #  grid sym
  ------    --------  ------  --------
  coarse        0        0        1
  medium        2        1        1
  fine          0        0        1
  ultrafine     4        2        1
  charge        0        0        1
  gradient      4        2        1
  density       0        0        1
  DFT-fine    -11        3        1
  DFT-med.    -10        4        1
  DFT-grad    -12        5        1
  DFT-der2     -8        6        1
  DFT-cphf     -9        7        1
  LMP2-enrg     4        2        1
  LMP2-grad     2        1        1
  DFT-cphf2   -15        8        1
  PBF-dens      0        0        1
  plotting      0        0        1
  Rel-grad    -17        0        1
  
  number of gridpoints: 
     atom        C1       C2       C8       O9       H5       H6      C12
  grid # 1       87       94       87      116      109      111       93
  grid # 2      317      340      287      450      449      430      337
  grid # 3     4304     4304     4304     4304     4304     4304     4304
  grid # 4     1192     1192     1192     1192     1192     1192     1192
  grid # 5     5226     5226     5226     5226     5226     5226     5226
  grid # 6    12650    12650    12650    23504    13718    13718    12650
  grid # 7      688      688      688      714      744      744      688
  grid # 8      358      358      358      360      382      382      358
   
  number of gridpoints: 
     atom       C13       H9      H10      H11      H12      H13      H14
  grid # 1       87      117      118      118      118      118      112
  grid # 2      318      447      456      450      456      457      440
  grid # 3     4304     4304     4304     4304     4304     4304     4304
  grid # 4     1192     1192     1192     1192     1192     1192     1192
  grid # 5     5226     5226     5226     5226     5226     5226     5226
[...]
    H5       Y     0.13654   0.00599  -0.01858  -0.00061  -0.03669   0.01229
    H5       Z     0.16529  -0.05525  -0.01537   0.00118  -0.00979   0.02629
    H6       X     0.13431   0.06787  -0.01046  -0.00307  -0.14075   0.05427
    H6       Y     0.20191   0.09169  -0.02493  -0.00072  -0.08567   0.03848
    H6       Z    -0.02564  -0.12989  -0.02216   0.01130   0.19232  -0.00945
    C12      X     0.01140  -0.03523  -0.09124   0.04896  -0.03594  -0.00250
    C12      Y     0.02219  -0.03280   0.12025  -0.05788  -0.02506  -0.00276
    C12      Z    -0.09620   0.02977   0.02262  -0.01224  -0.00434  -0.00188
    C13      X    -0.06556   0.00043   0.00941  -0.09867  -0.06524  -0.01120
    C13      Y    -0.04279  -0.00191  -0.00826   0.10621  -0.06104  -0.00953
    C13      Z    -0.06791   0.01051   0.00344   0.02116  -0.01080  -0.00148
    H9       X     0.05320   0.03998   0.00243  -0.00258  -0.15310   0.01713
    H9       Y     0.03297   0.14617   0.00764  -0.00552  -0.15756   0.03667
    H9       Z    -0.14644  -0.20001   0.00532  -0.00091  -0.05426  -0.01162
    H10      X    -0.08265  -0.02758   0.00454  -0.00181  -0.04439   0.05613
    H10      Y     0.20009   0.26309  -0.01202   0.00603   0.20058  -0.33255
    H10      Z    -0.09031  -0.43947  -0.01696   0.00879   0.12778   0.52592
    H11      X    -0.12014   0.03698   0.01341  -0.00688  -0.16282   0.08324
    H11      Y    -0.16084  -0.11400   0.00994  -0.00541  -0.16618  -0.18985
    H11      Z     0.09594   0.31746   0.00891  -0.00635  -0.10561   0.52339
    H12      X    -0.03798  -0.00499   0.48792   0.33729  -0.07454  -0.01086
    H12      Y    -0.10351   0.02418  -0.53832  -0.37530  -0.00735  -0.00299
    H12      Z     0.15051  -0.14725  -0.09198  -0.08740  -0.39184  -0.06216
    H13      X    -0.26223   0.12443  -0.19995   0.41198   0.14773   0.02358
    H13      Y    -0.14045   0.07420   0.20617  -0.45576   0.16211   0.02382
    H13      Z    -0.19606   0.09856   0.04181  -0.09471   0.18557   0.02887
    H14      X    -0.01949  -0.00670   0.13123  -0.07727   0.03666   0.00428
    H14      Y    -0.04344   0.00590  -0.13190   0.09156   0.07028   0.01549
    H14      Z    -0.13872   0.05878  -0.02530   0.01873   0.07255   0.01036
  
  vibration #           13        14        15        16        17        18
                 --------- --------- --------- --------- --------- ---------
  frequencies       922.25    941.56    973.65    995.53   1062.94   1142.11
  intensities         0.93     18.33      1.55     27.85    115.71      1.30
  reduc. mass         0.52      0.54      1.57      0.51      3.68      1.25
  force const         0.26      0.28      0.88      0.30      2.45      0.96
    C1       X     0.08737   0.00568   0.04269  -0.00885  -0.01266   0.05469
    C1       Y     0.03468   0.00382   0.03618   0.00280  -0.00296  -0.00928
    C1       Z    -0.02444   0.00152   0.02244  -0.00455   0.00287  -0.00694
    C2       X     0.04834   0.00545   0.04237  -0.00144  -0.00721  -0.12433
    C2       Y    -0.00369   0.00165   0.02901  -0.03757   0.00421   0.03554
    C2       Z     0.02562  -0.00281  -0.06580   0.08417  -0.01313   0.03075
    C8       X    -0.09397  -0.00892  -0.07773   0.01930   0.03570   0.12112
    C8       Y    -0.00261  -0.00943  -0.13617   0.01517   0.03040  -0.06569
    C8       Z    -0.04598  -0.00532   0.06035  -0.02372   0.15061  -0.01222
    O9       X    -0.03733  -0.00997   0.00267   0.00525  -0.03441  -0.01547
    O9       Y    -0.03314  -0.00132   0.02007   0.00055  -0.04006   0.02570
    O9       Z     0.00591   0.00471  -0.01945   0.01395  -0.14809   0.00133
    H5       X     0.04976  -0.02752  -0.50092   0.03090  -0.04927   0.05492
    H5       Y    -0.08348  -0.01454  -0.01961   0.00069   0.00437   0.16246
    H5       Z    -0.11903  -0.01756   0.13125  -0.03497   0.08003   0.27182
    H6       X    -0.24884  -0.00017   0.06386   0.02787   0.07512   0.14424
    H6       Y    -0.17225   0.00054   0.11338  -0.00878   0.08505   0.08793
    H6       Z     0.01802  -0.00589  -0.19900   0.06080   0.07788  -0.34578
    C12      X     0.01069   0.06226   0.01266  -0.00557  -0.02434  -0.00181
    C12      Y     0.01358  -0.06269   0.02447  -0.00641  -0.02584  -0.00055
    C12      Z     0.00917  -0.01361  -0.01005   0.00144   0.03006   0.00267
    C13      X     0.04944   0.00620  -0.01224  -0.00283   0.06554  -0.00290
    C13      Y     0.04112   0.00461  -0.01674  -0.00095   0.05434  -0.00150
    C13      Z     0.01095   0.00021   0.02210  -0.00565   0.00445  -0.00624
    H9       X    -0.11822   0.00876   0.13015  -0.12457  -0.03820  -0.33477
    H9       Y    -0.12919   0.00229   0.11223   0.27974  -0.01314  -0.17068
    H9       Z    -0.09347   0.00161  -0.04956  -0.69131  -0.03571  -0.02630
    H10      X    -0.03639   0.00047   0.02605   0.02483   0.00339  -0.01871
    H10      Y     0.37339   0.01898   0.06028  -0.15695  -0.06415   0.19201
    H10      Z     0.28210   0.01414   0.23890   0.24614   0.03963   0.07717
    H11      X    -0.21249  -0.00578  -0.01991  -0.02232   0.00948  -0.15201
    H11      Y    -0.30005  -0.00368   0.08329   0.21099   0.04604  -0.18889
    H11      Z     0.00536  -0.00601  -0.17107  -0.40152  -0.04291  -0.07582
    H12      X     0.04799   0.16325  -0.01950  -0.00147   0.08034   0.00516
    H12      Y     0.01456  -0.17186   0.00982  -0.00367   0.00389  -0.00986
    H12      Z     0.26256  -0.00460  -0.10378  -0.00392   0.29927  -0.01640
    H13      X    -0.08759  -0.32787   0.09911  -0.01152  -0.11990  -0.01346
    H13      Y    -0.09711   0.33835   0.04504  -0.00424  -0.06815   0.00272
    H13      Z    -0.11179   0.05774   0.09669  -0.01091  -0.12622  -0.00860
    H14      X    -0.01465  -0.49440   0.08637  -0.01450  -0.09403   0.00316
    H14      Y    -0.06909   0.58963   0.03022  -0.00534  -0.07426   0.01023
    H14      Z    -0.04363   0.12392   0.01945  -0.00111  -0.02365   0.00733
  
  vibration #           19        20        21        22        23        24
                 --------- --------- --------- --------- --------- ---------
  frequencies      1191.80   1228.23   1275.48   1303.92   1335.85   1390.58
  intensities       232.62     39.02      1.08      3.15     82.12      9.28
  reduc. mass         2.72      0.45      0.63      0.56      0.49      0.34
  force const         2.27      0.40      0.60      0.56      0.51      0.39
    C1       X    -0.01845  -0.03429  -0.04911  -0.00025  -0.00029  -0.00311
    C1       Y     0.00131  -0.00361   0.07643   0.01009   0.02374   0.00268
    C1       Z     0.00142   0.00032   0.04114   0.00447   0.01035   0.00159
    C2       X     0.02865   0.07519   0.06692   0.00201   0.00196   0.01585
    C2       Y    -0.01347  -0.01621  -0.02916  -0.00913  -0.04226   0.02978
    C2       Z     0.01692   0.00083  -0.03597  -0.00316  -0.00396   0.00544
    C8       X     0.01218  -0.03322   0.02504  -0.01786  -0.09260   0.02517
    C8       Y     0.02179  -0.02402  -0.01045  -0.00869  -0.04782   0.00578
    C8       Z     0.03549   0.01519  -0.00439  -0.00426  -0.04484  -0.00118
    O9       X    -0.10931   0.02822   0.00217  -0.01985   0.02306   0.01569
    O9       Y    -0.08022   0.06122   0.00438  -0.02395   0.01003   0.01290
    O9       Z    -0.02195  -0.01103   0.01397   0.00014  -0.02117   0.02098
    H5       X     0.19985   0.27228  -0.15588   0.03071   0.38254  -0.16341
    H5       Y     0.08706   0.20767  -0.09009   0.02697   0.20162  -0.00745
    H5       Z     0.15209   0.38439  -0.13747   0.06363   0.36759  -0.03719
    H6       X    -0.16047  -0.42781  -0.00944   0.08388   0.34150  -0.09144
    H6       Y    -0.07885  -0.21323  -0.02368   0.04177   0.22041  -0.09488
    H6       Z    -0.15037  -0.44199  -0.06062   0.10933   0.29327   0.00207
    C12      X     0.10212  -0.04109  -0.00102  -0.00115  -0.02446  -0.06407
    C12      Y     0.09929  -0.03734  -0.00092  -0.01152  -0.01327  -0.04692
    C12      Z    -0.07869   0.03734   0.00400   0.05516  -0.03752  -0.04067
    C13      X    -0.01401   0.00844  -0.00197   0.00613   0.00463  -0.01293
    C13      Y    -0.02393   0.01148  -0.00182   0.02117   0.00191   0.00182
    C13      Z     0.04840  -0.02212   0.00059  -0.07363   0.01367  -0.06249
    H9       X    -0.01842   0.07934  -0.47347  -0.02458  -0.02730  -0.04473
    H9       Y    -0.02341   0.01347  -0.58354  -0.03805  -0.07275  -0.03355
    H9       Z    -0.05520  -0.04852  -0.15989  -0.00907  -0.02800   0.00051
    H10      X     0.00184   0.00876  -0.00445  -0.00683  -0.04321   0.05212
    H10      Y    -0.05569  -0.12635  -0.02560   0.03678   0.18399  -0.17960
    H10      Z    -0.04585  -0.05974  -0.01026   0.01413   0.05853  -0.08047
    H11      X     0.02424   0.04720   0.18371   0.03297   0.14725  -0.13049
    H11      Y     0.03564   0.06400   0.28580   0.04056   0.15865  -0.11956
    H11      Z     0.01515   0.02076   0.12712   0.02097   0.08397  -0.04663
    H12      X    -0.01496   0.01687  -0.00345  -0.01043   0.02368   0.02440
    H12      Y     0.00524  -0.00857   0.00078   0.03511  -0.03257  -0.10036
    H12      Z    -0.04479   0.00611  -0.01645  -0.15473   0.21283   0.58452
    H13      X     0.18187  -0.09538  -0.00349  -0.21636   0.13252   0.33267
    H13      Y     0.12272  -0.04587  -0.00553  -0.15108   0.09920   0.24890
    H13      Z     0.20321  -0.09388  -0.00244  -0.26074   0.12306   0.21794
    H14      X     0.20513  -0.05176  -0.04242   0.55811  -0.00437   0.23734
    H14      Y     0.16844  -0.03304  -0.03341   0.36519   0.00733   0.16354
    H14      Z    -0.00619   0.03218  -0.02577   0.46913  -0.03331   0.18488
  
  vibration #           25        26        27        28        29        30
                 --------- --------- --------- --------- --------- ---------
  frequencies      1421.22   1458.89   1679.07   1687.19   2900.94   2963.47
  intensities        20.27      4.12    110.05     42.92     44.35     41.30
  reduc. mass         0.35      0.47      2.83      2.77      0.72      0.74
  force const         0.42      0.59      4.70      4.64      3.57      3.84
    C1       X    -0.00265  -0.00059  -0.02591   0.04342  -0.00006  -0.00070
    C1       Y     0.03911   0.00605  -0.07953   0.13251   0.00009   0.00058
    C1       Z     0.01824   0.00327  -0.03523   0.05872   0.00014   0.00025
    C2       X     0.05778   0.01319   0.03958  -0.07320   0.00002  -0.00331
    C2       Y     0.06395   0.01161   0.08461  -0.14576  -0.00018   0.00097
    C2       Z     0.02485   0.00627   0.03426  -0.06025  -0.00015   0.00152
    C8       X    -0.04547  -0.06227   0.00302   0.02549  -0.02729   0.04662
    C8       Y    -0.03430  -0.01083  -0.00317   0.02516  -0.03844  -0.07314
    C8       Z    -0.02822   0.05105   0.00260   0.01029   0.04904  -0.00269
    O9       X    -0.00105   0.00400   0.00943   0.00945   0.00109  -0.00072
    O9       Y    -0.00536   0.00288   0.00756   0.00722   0.00043  -0.00034
    O9       Z    -0.01471   0.01237   0.01536   0.01205   0.00268  -0.00065
    H5       X     0.01128   0.43260  -0.03094   0.03181   0.08295   0.04849
    H5       Y     0.09639  -0.35643  -0.03475  -0.01259   0.71963   0.26439
    H5       Z     0.15549  -0.35705  -0.03824  -0.02516  -0.53044  -0.20433
    H6       X     0.14325   0.19862   0.00241  -0.06565   0.22611  -0.58506
    H6       Y     0.05676   0.41949   0.01494  -0.03505  -0.26658   0.61822
    H6       Z     0.21499  -0.46579  -0.02922  -0.05664  -0.08954   0.24687
    C12      X     0.01304  -0.00543  -0.09401  -0.05493  -0.00119  -0.00038
    C12      Y     0.01122  -0.00503  -0.05303  -0.03166   0.00004  -0.00013
    C12      Z     0.00094   0.00591  -0.14137  -0.08104  -0.00248   0.00156
    C13      X     0.00850  -0.00387   0.06400   0.03605   0.00051  -0.00015
    C13      Y     0.00190  -0.00020   0.02940   0.01659   0.00040  -0.00008
    C13      Z     0.02754  -0.01448   0.12923   0.07253   0.00021  -0.00024
    H9       X    -0.14765  -0.01063  -0.08631   0.15308   0.00468   0.03136
    H9       Y    -0.13955  -0.00074  -0.02120   0.04581  -0.00405  -0.03139
    H9       Z    -0.03197  -0.02097   0.00370   0.00008  -0.00367  -0.01796
    H10      X     0.16753   0.03114  -0.08276   0.13662   0.00532  -0.00103
    H10      Y    -0.50308  -0.09793   0.05279  -0.08166  -0.00059   0.00252
    H10      Z    -0.25671  -0.03537   0.03890  -0.05860   0.00111   0.00011
    H11      X    -0.38728  -0.07278   0.11324  -0.18381  -0.00497   0.00798
    H11      Y    -0.32890  -0.05299   0.03230  -0.04861   0.00272  -0.00205
    H11      Z    -0.11086  -0.03319   0.00364  -0.00558   0.00088   0.00010
    H12      X     0.00010  -0.00239   0.06788   0.03851   0.00305  -0.00056
    H12      Y     0.03020  -0.01032   0.08341   0.04616   0.00211  -0.00214
    H12      Z    -0.15031   0.05363  -0.11495  -0.06090   0.00080  -0.00043
    H13      X    -0.08866   0.02846  -0.12986  -0.07183  -0.00214  -0.00043
    H13      Y    -0.06817   0.02113  -0.12012  -0.06585  -0.00119   0.00087
    H13      Z    -0.04992   0.00962   0.00108   0.00210   0.00102  -0.00062
    H14      X    -0.05344   0.03356   0.15526   0.08722   0.00105   0.00949
    H14      Y    -0.03358   0.01302   0.13129   0.07468  -0.00539   0.01002
    H14      Z    -0.05328   0.03349   0.01643   0.01037   0.02062  -0.01816
  
  vibration #           31        32        33        34        35        36
                 --------- --------- --------- --------- --------- ---------
  frequencies      3049.60   3085.88   3102.01   3122.32   3178.56   3219.38
  intensities        26.31     10.40      5.99      0.00     12.89      5.61
  reduc. mass         0.90      0.43      0.76      0.49      0.55      0.55
  force const         4.95      2.42      4.33      2.81      3.27      3.34
    C1       X    -0.00010   0.00744   0.00838   0.00006   0.09160   0.00002
    C1       Y    -0.00017   0.05688  -0.02304  -0.00022  -0.00952  -0.00002
    C1       Z    -0.00006   0.02598  -0.01153  -0.00010  -0.01223  -0.00000
    C2       X     0.00023  -0.01838  -0.05162  -0.00026   0.00782   0.00002
    C2       Y    -0.00008   0.00803   0.05238   0.00034  -0.00799   0.00000
    C2       Z    -0.00039   0.00571   0.03001   0.00025  -0.00458   0.00002
    C8       X    -0.00119  -0.00110  -0.00075   0.00024  -0.00003  -0.00001
    C8       Y     0.00168   0.00138   0.00470  -0.00008  -0.00099  -0.00015
    C8       Z     0.00137   0.00041   0.00048   0.00008  -0.00002  -0.00002
    O9       X    -0.00027   0.00012  -0.00015  -0.00045   0.00005  -0.00056
    O9       Y    -0.00080   0.00002  -0.00022  -0.00018   0.00010  -0.00030
    O9       Z     0.00056   0.00002  -0.00013   0.00012   0.00003  -0.00022
    H5       X    -0.00378   0.00016  -0.00534   0.00024   0.00055   0.00045
    H5       Y     0.00534  -0.00189  -0.01807   0.00111   0.00416   0.00036
    H5       Z    -0.01250   0.00098   0.01164  -0.00069  -0.00249   0.00076
    H6       X     0.01649   0.01458   0.02398  -0.00013  -0.00861  -0.00015
    H6       Y    -0.02054  -0.01182  -0.02579  -0.00007   0.00416   0.00030
    H6       Z    -0.00923  -0.00450  -0.00951  -0.00053   0.00216   0.00005
    C12      X    -0.02211  -0.00010   0.00002  -0.00172  -0.00008   0.00195
    C12      Y    -0.03357  -0.00016  -0.00008   0.00147  -0.00003   0.00264
    C12      Z     0.07146   0.00020   0.00001  -0.01463   0.00005  -0.00464
    C13      X     0.00283   0.00006  -0.00014   0.02315  -0.00000   0.06068
    C13      Y     0.00287   0.00003  -0.00006   0.00781   0.00000   0.06234
    C13      Z    -0.00125   0.00007  -0.00035   0.06208   0.00001  -0.03637
    H9       X    -0.00166   0.19287   0.63523   0.00341  -0.08302  -0.00012
    H9       Y     0.00191  -0.16542  -0.55549  -0.00299   0.07340   0.00009
    H9       Z     0.00135  -0.09788  -0.32831  -0.00179   0.04338  -0.00001
    H10      X     0.00230  -0.56745   0.06950   0.00092  -0.71123  -0.00008
    H10      Y     0.00017  -0.16237   0.01912   0.00036  -0.22309  -0.00000
    H10      Z     0.00068  -0.02807   0.00284  -0.00003  -0.04515  -0.00004
    H11      X    -0.00154   0.50157  -0.19734  -0.00165  -0.38130  -0.00011
    H11      Y     0.00135  -0.44781   0.17873   0.00148   0.36017   0.00011
    H11      Z     0.00046  -0.25299   0.10138   0.00090   0.20167   0.00005
    H12      X    -0.07623  -0.00083   0.00237  -0.46343   0.00016  -0.53677
    H12      Y    -0.06924  -0.00067   0.00238  -0.41155   0.00005  -0.47387
    H12      Z    -0.00353  -0.00001   0.00008  -0.03659   0.00004  -0.05825
    H13      X     0.01446   0.00026  -0.00132   0.23760   0.00002  -0.18625
    H13      Y     0.02271   0.00040  -0.00204   0.34080   0.00003  -0.27340
    H13      Z    -0.03677  -0.00070   0.00350  -0.60864  -0.00007   0.50810
    H14      X     0.29657   0.00096   0.00055  -0.02538   0.00016  -0.01405
    H14      Y     0.41945   0.00141   0.00104  -0.03736   0.00012  -0.02056
    H14      Z    -0.79643  -0.00251  -0.00137   0.07768  -0.00037   0.04110
  
  Number of imaginary frequencies:   0
   
  Writing vibrational animation data to e2.vib
  Writing IR vibrational spectrum data to e2_vib.spm
  rotational symmetry number:  1

  rotational temperatures (K):      0.926876      0.068430      0.066834
   
  The Quasi-Harmonic approximation will be applied to compute
  vibrational constributions to thermodynamic properties.
  Frequencies will be adjusted to a minimum value of  100.00 cm^-1.

  vibrational temperatures:
       mode:      1        2        3        4        5        6
  temp. (K):   143.88   143.88   143.88   290.30   537.20   564.20
   
       mode:      7        8        9       10       11       12
  temp. (K):   726.89   907.37   979.40  1124.44  1263.87  1313.23
   
       mode:     13       14       15       16       17       18
  temp. (K):  1326.90  1354.69  1400.86  1432.34  1529.34  1643.24
   
       mode:     19       20       21       22       23       24
  temp. (K):  1714.73  1767.15  1835.13  1876.05  1921.98  2000.73
   
       mode:     25       26       27       28       29       30
  temp. (K):  2044.82  2099.02  2415.80  2427.49  4173.80  4263.77
   
       mode:     31       32       33       34       35       36
  temp. (K):  4387.69  4439.88  4463.09  4492.31  4573.24  4631.96
   
   
  Thermodynamic properties calculated assuming an ideal gas

  In the table below, the units for temperature
  are kelvins, the units for U, H, and G are
  kcal/mol and the units for Cv and S are cal/(mol K)

  The zero point energy (ZPE):     71.892 kcal/mol
  is not included in U, H, or G in the table below
  
 
  =============================================================================
  Thermodynamic properties for P = 1.00E+00 atm, calculated at   1 temperatures


  T =   298.15 K, P = 1.00E+00 atm
   
                  U         Cv          S          H          G        ln(Q)
              =========  =========  =========  =========  =========  =========
  trans.          0.889      2.981     39.200      1.481    -10.206   17.22638
  rot.            0.889      2.981     26.530      0.889     -7.021   11.85048
  vib.            2.766     18.939     17.211      2.766     -2.365    3.99220
  elec.           0.000      0.000      0.000      0.000      0.000    0.00000
  ----------------------------------------------------------------------------
  total           4.544     24.900     82.941      5.136    -19.593   33.06906
   
   Total internal energy, Utot(SCFE + ZPE + U):    -270.043983 hartrees
   Total enthalpy, Htot (Utot + nRT), with n=1:    -270.043039 hartrees
    Total Gibbs free energy, Gtot (Htot - T*S):    -270.082447 hartrees
   
  end of program freq
   
 Time(freq)  user:        2.4  user+sys:        2.4  wallclock:        2.8

 Total cpu seconds     user:     204.906   user+sys:     204.906
  
 Total elapsed time:    400 seconds

Job e2 completed on hpc-24-11.cm.cluster at Wed Apr 19 13:11:18 2023
