#Position data for Pt H O system
1539 atoms

3 atom types

0.0000 44.393861 xlo xhi
0.0000 44.393861 ylo yhi
0.0000 50 zlo zhi

0.0000 0.0000 0.0000 xy xz yz

 Masses
 
1 195.078 # Pt
2 1.008 # H
3 16 # O

 Atoms

1 1 1 0 0 0 5.20361 0 0 0                   
2 1 1 0 0 0 12  0 0 0                   
3 1 1 0 1.84974 0.92487 2.93814 0 0 0                   
4 1 1 0 1.84974 0.92487 9.73454 0 0 0                   
5 1 1 0 0.92487 1.84974 0.67268 0 0 0                   
6 1 1 0 0.92487 1.84974 7.46907 0 0 0                   
7 1 1 0 2.77462 0 5.20361 0 0 0                   
8 1 1 0 2.77462 0 12  0 0 0                   
9 1 1 0 4.62436 0.92487 2.93814 0 0 0                   
10  1 1 0 4.62436 0.92487 9.73454 0 0 0                   
11  1 1 0 3.69949 1.84974 0.67268 0 0 0                   
12  1 1 0 3.69949 1.84974 7.46907 0 0 0                   
13  1 1 0 5.54923 0 5.20361 0 0 0                   
14  1 1 0 5.54923 0 12  0 0 0                   
15  1 1 0 7.39898 0.92487 2.93814 0 0 0                   
16  1 1 0 7.39898 0.92487 9.73454 0 0 0                   
17  1 1 0 6.4741  1.84974 0.67268 0 0 0                   
18  1 1 0 6.4741  1.84974 7.46907 0 0 0                   
19  1 1 0 8.32385 0 5.20361 0 0 0                   
20  1 1 0 8.32385 0 12  0 0 0                   
21  1 1 0 10.17359  0.92487 2.93814 0 0 0                   
22  1 1 0 10.17359  0.92487 9.73454 0 0 0                   
23  1 1 0 9.24872 1.84974 0.67268 0 0 0                   
24  1 1 0 9.24872 1.84974 7.46907 0 0 0                   
25  1 1 0 11.09847  0 5.20361 0 0 0                   
26  1 1 0 11.09847  0 12  0 0 0                   
27  1 1 0 12.94821  0.92487 2.93814 0 0 0                   
28  1 1 0 12.94821  0.92487 9.73454 0 0 0                   
29  1 1 0 12.02334  1.84974 0.67268 0 0 0                   
30  1 1 0 12.02334  1.84974 7.46907 0 0 0                   
31  1 1 0 13.87308  0 5.20361 0 0 0                   
32  1 1 0 13.87308  0 12  0 0 0                   
33  1 1 0 15.72283  0.92487 2.93814 0 0 0                   
34  1 1 0 15.72283  0.92487 9.73454 0 0 0                   
35  1 1 0 14.79795  1.84974 0.67268 0 0 0                   
36  1 1 0 14.79795  1.84974 7.46907 0 0 0                   
37  1 1 0 16.6477 0 5.20361 0 0 0                   
38  1 1 0 16.6477 0 12  0 0 0                   
39  1 1 0 18.49744  0.92487 2.93814 0 0 0                   
40  1 1 0 18.49744  0.92487 9.73454 0 0 0                   
41  1 1 0 17.57257  1.84974 0.67268 0 0 0                   
42  1 1 0 17.57257  1.84974 7.46907 0 0 0                   
43  1 1 0 19.42231  0 5.20361 0 0 0                   
44  1 1 0 19.42231  0 12  0 0 0                   
45  1 1 0 21.27206  0.92487 2.93814 0 0 0                   
46  1 1 0 21.27206  0.92487 9.73454 0 0 0                   
47  1 1 0 20.34719  1.84974 0.67268 0 0 0                   
48  1 1 0 20.34719  1.84974 7.46907 0 0 0                   
49  1 1 0 22.19693  0 5.20361 0 0 0                   
50  1 1 0 22.19693  0 12  0 0 0                   
51  1 1 0 24.04667  0.92487 2.93814 0 0 0                   
52  1 1 0 24.04667  0.92487 9.73454 0 0 0                   
53  1 1 0 23.1218 1.84974 0.67268 0 0 0                   
54  1 1 0 23.1218 1.84974 7.46907 0 0 0                   
55  1 1 0 24.97155  0 5.20361 0 0 0                   
56  1 1 0 24.97155  0 12  0 0 0                   
57  1 1 0 26.82129  0.92487 2.93814 0 0 0                   
58  1 1 0 26.82129  0.92487 9.73454 0 0 0                   
59  1 1 0 25.89642  1.84974 0.67268 0 0 0                   
60  1 1 0 25.89642  1.84974 7.46907 0 0 0                   
61  1 1 0 27.74616  0 5.20361 0 0 0                   
62  1 1 0 27.74616  0 12  0 0 0                   
63  1 1 0 29.59591  0.92487 2.93814 0 0 0                   
64  1 1 0 29.59591  0.92487 9.73454 0 0 0                   
65  1 1 0 28.67104  1.84974 0.67268 0 0 0                   
66  1 1 0 28.67104  1.84974 7.46907 0 0 0                   
67  1 1 0 30.52078  0 5.20361 0 0 0                   
68  1 1 0 30.52078  0 12  0 0 0                   
69  1 1 0 32.37052  0.92487 2.93814 0 0 0                   
70  1 1 0 32.37052  0.92487 9.73454 0 0 0                   
71  1 1 0 31.44565  1.84974 0.67268 0 0 0                   
72  1 1 0 31.44565  1.84974 7.46907 0 0 0                   
73  1 1 0 33.2954 0 5.20361 0 0 0                   
74  1 1 0 33.2954 0 12  0 0 0                   
75  1 1 0 35.14514  0.92487 2.93814 0 0 0                   
76  1 1 0 35.14514  0.92487 9.73454 0 0 0                   
77  1 1 0 34.22027  1.84974 0.67268 0 0 0                   
78  1 1 0 34.22027  1.84974 7.46907 0 0 0                   
79  1 1 0 36.07001  0 5.20361 0 0 0                   
80  1 1 0 36.07001  0 12  0 0 0                   
81  1 1 0 37.91976  0.92487 2.93814 0 0 0                   
82  1 1 0 37.91976  0.92487 9.73454 0 0 0                   
83  1 1 0 36.99488  1.84974 0.67268 0 0 0                   
84  1 1 0 36.99488  1.84974 7.46907 0 0 0                   
85  1 1 0 38.84463  0 5.20361 0 0 0                   
86  1 1 0 38.84463  0 12  0 0 0                   
87  1 1 0 40.69437  0.92487 2.93814 0 0 0                   
88  1 1 0 40.69437  0.92487 9.73454 0 0 0                   
89  1 1 0 39.7695 1.84974 0.67268 0 0 0                   
90  1 1 0 39.7695 1.84974 7.46907 0 0 0                   
91  1 1 0 41.61924  0 5.20361 0 0 0                   
92  1 1 0 41.61924  0 12  0 0 0                   
93  1 1 0 43.46899  0.92487 2.93814 0 0 0                   
94  1 1 0 43.46899  0.92487 9.73454 0 0 0                   
95  1 1 0 42.54412  1.84974 0.67268 0 0 0                   
96  1 1 0 42.54412  1.84974 7.46907 0 0 0                   
97  1 1 0 0 2.77462 5.20361 0 0 0                   
98  1 1 0 0 2.77462 12  0 0 0                   
99  1 1 0 1.84974 3.69949 2.93814 0 0 0                   
100 1 1 0 1.84974 3.69949 9.73454 0 0 0                   
101 1 1 0 0.92487 4.62436 0.67268 0 0 0                   
102 1 1 0 0.92487 4.62436 7.46907 0 0 0                   
103 1 1 0 2.77462 2.77462 5.20361 0 0 0                   
104 1 1 0 2.77462 2.77462 12  0 0 0                   
105 1 1 0 4.62436 3.69949 2.93814 0 0 0                   
106 1 1 0 4.62436 3.69949 9.73454 0 0 0                   
107 1 1 0 3.69949 4.62436 0.67268 0 0 0                   
108 1 1 0 3.69949 4.62436 7.46907 0 0 0                   
109 1 1 0 5.54923 2.77462 5.20361 0 0 0                   
110 1 1 0 5.54923 2.77462 12  0 0 0                   
111 1 1 0 7.39898 3.69949 2.93814 0 0 0                   
112 1 1 0 7.39898 3.69949 9.73454 0 0 0                   
113 1 1 0 6.4741  4.62436 0.67268 0 0 0                   
114 1 1 0 6.4741  4.62436 7.46907 0 0 0                   
115 1 1 0 8.32385 2.77462 5.20361 0 0 0                   
116 1 1 0 8.32385 2.77462 12  0 0 0                   
117 1 1 0 10.17359  3.69949 2.93814 0 0 0                   
118 1 1 0 10.17359  3.69949 9.73454 0 0 0                   
119 1 1 0 9.24872 4.62436 0.67268 0 0 0                   
120 1 1 0 9.24872 4.62436 7.46907 0 0 0                   
121 1 1 0 11.09847  2.77462 5.20361 0 0 0                   
122 1 1 0 11.09847  2.77462 12  0 0 0                   
123 1 1 0 12.94821  3.69949 2.93814 0 0 0                   
124 1 1 0 12.94821  3.69949 9.73454 0 0 0                   
125 1 1 0 12.02334  4.62436 0.67268 0 0 0                   
126 1 1 0 12.02334  4.62436 7.46907 0 0 0                   
127 1 1 0 13.87308  2.77462 5.20361 0 0 0                   
128 1 1 0 13.87308  2.77462 12  0 0 0                   
129 1 1 0 15.72283  3.69949 2.93814 0 0 0                   
130 1 1 0 15.72283  3.69949 9.73454 0 0 0                   
131 1 1 0 14.79795  4.62436 0.67268 0 0 0                   
132 1 1 0 14.79795  4.62436 7.46907 0 0 0                   
133 1 1 0 16.6477 2.77462 5.20361 0 0 0                   
134 1 1 0 16.6477 2.77462 12  0 0 0                   
135 1 1 0 18.49744  3.69949 2.93814 0 0 0                   
136 1 1 0 18.49744  3.69949 9.73454 0 0 0                   
137 1 1 0 17.57257  4.62436 0.67268 0 0 0                   
138 1 1 0 17.57257  4.62436 7.46907 0 0 0                   
139 1 1 0 19.42231  2.77462 5.20361 0 0 0                   
140 1 1 0 19.42231  2.77462 12  0 0 0                   
141 1 1 0 21.27206  3.69949 2.93814 0 0 0                   
142 1 1 0 21.27206  3.69949 9.73454 0 0 0                   
143 1 1 0 20.34719  4.62436 0.67268 0 0 0                   
144 1 1 0 20.34719  4.62436 7.46907 0 0 0                   
145 1 1 0 22.19693  2.77462 5.20361 0 0 0                   
146 1 1 0 22.19693  2.77462 12  0 0 0                   
147 1 1 0 24.04667  3.69949 2.93814 0 0 0                   
148 1 1 0 24.04667  3.69949 9.73454 0 0 0                   
149 1 1 0 23.1218 4.62436 0.67268 0 0 0                   
150 1 1 0 23.1218 4.62436 7.46907 0 0 0                   
151 1 1 0 24.97155  2.77462 5.20361 0 0 0                   
152 1 1 0 24.97155  2.77462 12  0 0 0                   
153 1 1 0 26.82129  3.69949 2.93814 0 0 0                   
154 1 1 0 26.82129  3.69949 9.73454 0 0 0                   
155 1 1 0 25.89642  4.62436 0.67268 0 0 0                   
156 1 1 0 25.89642  4.62436 7.46907 0 0 0                   
157 1 1 0 27.74616  2.77462 5.20361 0 0 0                   
158 1 1 0 27.74616  2.77462 12  0 0 0                   
159 1 1 0 29.59591  3.69949 2.93814 0 0 0                   
160 1 1 0 29.59591  3.69949 9.73454 0 0 0                   
161 1 1 0 28.67104  4.62436 0.67268 0 0 0                   
162 1 1 0 28.67104  4.62436 7.46907 0 0 0                   
163 1 1 0 30.52078  2.77462 5.20361 0 0 0                   
164 1 1 0 30.52078  2.77462 12  0 0 0                   
165 1 1 0 32.37052  3.69949 2.93814 0 0 0                   
166 1 1 0 32.37052  3.69949 9.73454 0 0 0                   
167 1 1 0 31.44565  4.62436 0.67268 0 0 0                   
168 1 1 0 31.44565  4.62436 7.46907 0 0 0                   
169 1 1 0 33.2954 2.77462 5.20361 0 0 0                   
170 1 1 0 33.2954 2.77462 12  0 0 0                   
171 1 1 0 35.14514  3.69949 2.93814 0 0 0                   
172 1 1 0 35.14514  3.69949 9.73454 0 0 0                   
173 1 1 0 34.22027  4.62436 0.67268 0 0 0                   
174 1 1 0 34.22027  4.62436 7.46907 0 0 0                   
175 1 1 0 36.07001  2.77462 5.20361 0 0 0                   
176 1 1 0 36.07001  2.77462 12  0 0 0                   
177 1 1 0 37.91976  3.69949 2.93814 0 0 0                   
178 1 1 0 37.91976  3.69949 9.73454 0 0 0                   
179 1 1 0 36.99488  4.62436 0.67268 0 0 0                   
180 1 1 0 36.99488  4.62436 7.46907 0 0 0                   
181 1 1 0 38.84463  2.77462 5.20361 0 0 0                   
182 1 1 0 38.84463  2.77462 12  0 0 0                   
183 1 1 0 40.69437  3.69949 2.93814 0 0 0                   
184 1 1 0 40.69437  3.69949 9.73454 0 0 0                   
185 1 1 0 39.7695 4.62436 0.67268 0 0 0                   
186 1 1 0 39.7695 4.62436 7.46907 0 0 0                   
187 1 1 0 41.61924  2.77462 5.20361 0 0 0                   
188 1 1 0 41.61924  2.77462 12  0 0 0                   
189 1 1 0 43.46899  3.69949 2.93814 0 0 0                   
190 1 1 0 43.46899  3.69949 9.73454 0 0 0                   
191 1 1 0 42.54412  4.62436 0.67268 0 0 0                   
192 1 1 0 42.54412  4.62436 7.46907 0 0 0                   
193 1 1 0 0 5.54923 5.20361 0 0 0                   
194 1 1 0 0 5.54923 12  0 0 0                   
195 1 1 0 1.84974 6.4741  2.93814 0 0 0                   
196 1 1 0 1.84974 6.4741  9.73454 0 0 0                   
197 1 1 0 0.92487 7.39898 0.67268 0 0 0                   
198 1 1 0 0.92487 7.39898 7.46907 0 0 0                   
199 1 1 0 2.77462 5.54923 5.20361 0 0 0                   
200 1 1 0 2.77462 5.54923 12  0 0 0                   
201 1 1 0 4.62436 6.4741  2.93814 0 0 0                   
202 1 1 0 4.62436 6.4741  9.73454 0 0 0                   
203 1 1 0 3.69949 7.39898 0.67268 0 0 0                   
204 1 1 0 3.69949 7.39898 7.46907 0 0 0                   
205 1 1 0 5.54923 5.54923 5.20361 0 0 0                   
206 1 1 0 5.54923 5.54923 12  0 0 0                   
207 1 1 0 7.39898 6.4741  2.93814 0 0 0                   
208 1 1 0 7.39898 6.4741  9.73454 0 0 0                   
209 1 1 0 6.4741  7.39898 0.67268 0 0 0                   
210 1 1 0 6.4741  7.39898 7.46907 0 0 0                   
211 1 1 0 8.32385 5.54923 5.20361 0 0 0                   
212 1 1 0 8.32385 5.54923 12  0 0 0                   
213 1 1 0 10.17359  6.4741  2.93814 0 0 0                   
214 1 1 0 10.17359  6.4741  9.73454 0 0 0                   
215 1 1 0 9.24872 7.39898 0.67268 0 0 0                   
216 1 1 0 9.24872 7.39898 7.46907 0 0 0                   
217 1 1 0 11.09847  5.54923 5.20361 0 0 0                   
218 1 1 0 11.09847  5.54923 12  0 0 0                   
219 1 1 0 12.94821  6.4741  2.93814 0 0 0                   
220 1 1 0 12.94821  6.4741  9.73454 0 0 0                   
221 1 1 0 12.02334  7.39898 0.67268 0 0 0                   
222 1 1 0 12.02334  7.39898 7.46907 0 0 0                   
223 1 1 0 13.87308  5.54923 5.20361 0 0 0                   
224 1 1 0 13.87308  5.54923 12  0 0 0                   
225 1 1 0 15.72283  6.4741  2.93814 0 0 0                   
226 1 1 0 15.72283  6.4741  9.73454 0 0 0                   
227 1 1 0 14.79795  7.39898 0.67268 0 0 0                   
228 1 1 0 14.79795  7.39898 7.46907 0 0 0                   
229 1 1 0 16.6477 5.54923 5.20361 0 0 0                   
230 1 1 0 16.6477 5.54923 12  0 0 0                   
231 1 1 0 18.49744  6.4741  2.93814 0 0 0                   
232 1 1 0 18.49744  6.4741  9.73454 0 0 0                   
233 1 1 0 17.57257  7.39898 0.67268 0 0 0                   
234 1 1 0 17.57257  7.39898 7.46907 0 0 0                   
235 1 1 0 19.42231  5.54923 5.20361 0 0 0                   
236 1 1 0 19.42231  5.54923 12  0 0 0                   
237 1 1 0 21.27206  6.4741  2.93814 0 0 0                   
238 1 1 0 21.27206  6.4741  9.73454 0 0 0                   
239 1 1 0 20.34719  7.39898 0.67268 0 0 0                   
240 1 1 0 20.34719  7.39898 7.46907 0 0 0                   
241 1 1 0 22.19693  5.54923 5.20361 0 0 0                   
242 1 1 0 22.19693  5.54923 12  0 0 0                   
243 1 1 0 24.04667  6.4741  2.93814 0 0 0                   
244 1 1 0 24.04667  6.4741  9.73454 0 0 0                   
245 1 1 0 23.1218 7.39898 0.67268 0 0 0                   
246 1 1 0 23.1218 7.39898 7.46907 0 0 0                   
247 1 1 0 24.97155  5.54923 5.20361 0 0 0                   
248 1 1 0 24.97155  5.54923 12  0 0 0                   
249 1 1 0 26.82129  6.4741  2.93814 0 0 0                   
250 1 1 0 26.82129  6.4741  9.73454 0 0 0                   
251 1 1 0 25.89642  7.39898 0.67268 0 0 0                   
252 1 1 0 25.89642  7.39898 7.46907 0 0 0                   
253 1 1 0 27.74616  5.54923 5.20361 0 0 0                   
254 1 1 0 27.74616  5.54923 12  0 0 0                   
255 1 1 0 29.59591  6.4741  2.93814 0 0 0                   
256 1 1 0 29.59591  6.4741  9.73454 0 0 0                   
257 1 1 0 28.67104  7.39898 0.67268 0 0 0                   
258 1 1 0 28.67104  7.39898 7.46907 0 0 0                   
259 1 1 0 30.52078  5.54923 5.20361 0 0 0                   
260 1 1 0 30.52078  5.54923 12  0 0 0                   
261 1 1 0 32.37052  6.4741  2.93814 0 0 0                   
262 1 1 0 32.37052  6.4741  9.73454 0 0 0                   
263 1 1 0 31.44565  7.39898 0.67268 0 0 0                   
264 1 1 0 31.44565  7.39898 7.46907 0 0 0                   
265 1 1 0 33.2954 5.54923 5.20361 0 0 0                   
266 1 1 0 33.2954 5.54923 12  0 0 0                   
267 1 1 0 35.14514  6.4741  2.93814 0 0 0                   
268 1 1 0 35.14514  6.4741  9.73454 0 0 0                   
269 1 1 0 34.22027  7.39898 0.67268 0 0 0                   
270 1 1 0 34.22027  7.39898 7.46907 0 0 0                   
271 1 1 0 36.07001  5.54923 5.20361 0 0 0                   
272 1 1 0 36.07001  5.54923 12  0 0 0                   
273 1 1 0 37.91976  6.4741  2.93814 0 0 0                   
274 1 1 0 37.91976  6.4741  9.73454 0 0 0                   
275 1 1 0 36.99488  7.39898 0.67268 0 0 0                   
276 1 1 0 36.99488  7.39898 7.46907 0 0 0                   
277 1 1 0 38.84463  5.54923 5.20361 0 0 0                   
278 1 1 0 38.84463  5.54923 12  0 0 0                   
279 1 1 0 40.69437  6.4741  2.93814 0 0 0                   
280 1 1 0 40.69437  6.4741  9.73454 0 0 0                   
281 1 1 0 39.7695 7.39898 0.67268 0 0 0                   
282 1 1 0 39.7695 7.39898 7.46907 0 0 0                   
283 1 1 0 41.61924  5.54923 5.20361 0 0 0                   
284 1 1 0 41.61924  5.54923 12  0 0 0                   
285 1 1 0 43.46899  6.4741  2.93814 0 0 0                   
286 1 1 0 43.46899  6.4741  9.73454 0 0 0                   
287 1 1 0 42.54412  7.39898 0.67268 0 0 0                   
288 1 1 0 42.54412  7.39898 7.46907 0 0 0                   
289 1 1 0 0 8.32385 5.20361 0 0 0                   
290 1 1 0 0 8.32385 12  0 0 0                   
291 1 1 0 1.84974 9.24872 2.93814 0 0 0                   
292 1 1 0 1.84974 9.24872 9.73454 0 0 0                   
293 1 1 0 0.92487 10.17359  0.67268 0 0 0                   
294 1 1 0 0.92487 10.17359  7.46907 0 0 0                   
295 1 1 0 2.77462 8.32385 5.20361 0 0 0                   
296 1 1 0 2.77462 8.32385 12  0 0 0                   
297 1 1 0 4.62436 9.24872 2.93814 0 0 0                   
298 1 1 0 4.62436 9.24872 9.73454 0 0 0                   
299 1 1 0 3.69949 10.17359  0.67268 0 0 0                   
300 1 1 0 3.69949 10.17359  7.46907 0 0 0                   
301 1 1 0 5.54923 8.32385 5.20361 0 0 0                   
302 1 1 0 5.54923 8.32385 12  0 0 0                   
303 1 1 0 7.39898 9.24872 2.93814 0 0 0                   
304 1 1 0 7.39898 9.24872 9.73454 0 0 0                   
305 1 1 0 6.4741  10.17359  0.67268 0 0 0                   
306 1 1 0 6.4741  10.17359  7.46907 0 0 0                   
307 1 1 0 8.32385 8.32385 5.20361 0 0 0                   
308 1 1 0 8.32385 8.32385 12  0 0 0                   
309 1 1 0 10.17359  9.24872 2.93814 0 0 0                   
310 1 1 0 10.17359  9.24872 9.73454 0 0 0                   
311 1 1 0 9.24872 10.17359  0.67268 0 0 0                   
312 1 1 0 9.24872 10.17359  7.46907 0 0 0                   
313 1 1 0 11.09847  8.32385 5.20361 0 0 0                   
314 1 1 0 11.09847  8.32385 12  0 0 0                   
315 1 1 0 12.94821  9.24872 2.93814 0 0 0                   
316 1 1 0 12.94821  9.24872 9.73454 0 0 0                   
317 1 1 0 12.02334  10.17359  0.67268 0 0 0                   
318 1 1 0 12.02334  10.17359  7.46907 0 0 0                   
319 1 1 0 13.87308  8.32385 5.20361 0 0 0                   
320 1 1 0 13.87308  8.32385 12  0 0 0                   
321 1 1 0 15.72283  9.24872 2.93814 0 0 0                   
322 1 1 0 15.72283  9.24872 9.73454 0 0 0                   
323 1 1 0 14.79795  10.17359  0.67268 0 0 0                   
324 1 1 0 14.79795  10.17359  7.46907 0 0 0                   
325 1 1 0 16.6477 8.32385 5.20361 0 0 0                   
326 1 1 0 16.6477 8.32385 12  0 0 0                   
327 1 1 0 18.49744  9.24872 2.93814 0 0 0                   
328 1 1 0 18.49744  9.24872 9.73454 0 0 0                   
329 1 1 0 17.57257  10.17359  0.67268 0 0 0                   
330 1 1 0 17.57257  10.17359  7.46907 0 0 0                   
331 1 1 0 19.42231  8.32385 5.20361 0 0 0                   
332 1 1 0 19.42231  8.32385 12  0 0 0                   
333 1 1 0 21.27206  9.24872 2.93814 0 0 0                   
334 1 1 0 21.27206  9.24872 9.73454 0 0 0                   
335 1 1 0 20.34719  10.17359  0.67268 0 0 0                   
336 1 1 0 20.34719  10.17359  7.46907 0 0 0                   
337 1 1 0 22.19693  8.32385 5.20361 0 0 0                   
338 1 1 0 22.19693  8.32385 12  0 0 0                   
339 1 1 0 24.04667  9.24872 2.93814 0 0 0                   
340 1 1 0 24.04667  9.24872 9.73454 0 0 0                   
341 1 1 0 23.1218 10.17359  0.67268 0 0 0                   
342 1 1 0 23.1218 10.17359  7.46907 0 0 0                   
343 1 1 0 24.97155  8.32385 5.20361 0 0 0                   
344 1 1 0 24.97155  8.32385 12  0 0 0                   
345 1 1 0 26.82129  9.24872 2.93814 0 0 0                   
346 1 1 0 26.82129  9.24872 9.73454 0 0 0                   
347 1 1 0 25.89642  10.17359  0.67268 0 0 0                   
348 1 1 0 25.89642  10.17359  7.46907 0 0 0                   
349 1 1 0 27.74616  8.32385 5.20361 0 0 0                   
350 1 1 0 27.74616  8.32385 12  0 0 0                   
351 1 1 0 29.59591  9.24872 2.93814 0 0 0                   
352 1 1 0 29.59591  9.24872 9.73454 0 0 0                   
353 1 1 0 28.67104  10.17359  0.67268 0 0 0                   
354 1 1 0 28.67104  10.17359  7.46907 0 0 0                   
355 1 1 0 30.52078  8.32385 5.20361 0 0 0                   
356 1 1 0 30.52078  8.32385 12  0 0 0                   
357 1 1 0 32.37052  9.24872 2.93814 0 0 0                   
358 1 1 0 32.37052  9.24872 9.73454 0 0 0                   
359 1 1 0 31.44565  10.17359  0.67268 0 0 0                   
360 1 1 0 31.44565  10.17359  7.46907 0 0 0                   
361 1 1 0 33.2954 8.32385 5.20361 0 0 0                   
362 1 1 0 33.2954 8.32385 12  0 0 0                   
363 1 1 0 35.14514  9.24872 2.93814 0 0 0                   
364 1 1 0 35.14514  9.24872 9.73454 0 0 0                   
365 1 1 0 34.22027  10.17359  0.67268 0 0 0                   
366 1 1 0 34.22027  10.17359  7.46907 0 0 0                   
367 1 1 0 36.07001  8.32385 5.20361 0 0 0                   
368 1 1 0 36.07001  8.32385 12  0 0 0                   
369 1 1 0 37.91976  9.24872 2.93814 0 0 0                   
370 1 1 0 37.91976  9.24872 9.73454 0 0 0                   
371 1 1 0 36.99488  10.17359  0.67268 0 0 0                   
372 1 1 0 36.99488  10.17359  7.46907 0 0 0                   
373 1 1 0 38.84463  8.32385 5.20361 0 0 0                   
374 1 1 0 38.84463  8.32385 12  0 0 0                   
375 1 1 0 40.69437  9.24872 2.93814 0 0 0                   
376 1 1 0 40.69437  9.24872 9.73454 0 0 0                   
377 1 1 0 39.7695 10.17359  0.67268 0 0 0                   
378 1 1 0 39.7695 10.17359  7.46907 0 0 0                   
379 1 1 0 41.61924  8.32385 5.20361 0 0 0                   
380 1 1 0 41.61924  8.32385 12  0 0 0                   
381 1 1 0 43.46899  9.24872 2.93814 0 0 0                   
382 1 1 0 43.46899  9.24872 9.73454 0 0 0                   
383 1 1 0 42.54412  10.17359  0.67268 0 0 0                   
384 1 1 0 42.54412  10.17359  7.46907 0 0 0                   
385 1 1 0 0 11.09847  5.20361 0 0 0                   
386 1 1 0 0 11.09847  12  0 0 0                   
387 1 1 0 1.84974 12.02334  2.93814 0 0 0                   
388 1 1 0 1.84974 12.02334  9.73454 0 0 0                   
389 1 1 0 0.92487 12.94821  0.67268 0 0 0                   
390 1 1 0 0.92487 12.94821  7.46907 0 0 0                   
391 1 1 0 2.77462 11.09847  5.20361 0 0 0                   
392 1 1 0 2.77462 11.09847  12  0 0 0                   
393 1 1 0 4.62436 12.02334  2.93814 0 0 0                   
394 1 1 0 4.62436 12.02334  9.73454 0 0 0                   
395 1 1 0 3.69949 12.94821  0.67268 0 0 0                   
396 1 1 0 3.69949 12.94821  7.46907 0 0 0                   
397 1 1 0 5.54923 11.09847  5.20361 0 0 0                   
398 1 1 0 5.54923 11.09847  12  0 0 0                   
399 1 1 0 7.39898 12.02334  2.93814 0 0 0                   
400 1 1 0 7.39898 12.02334  9.73454 0 0 0                   
401 1 1 0 6.4741  12.94821  0.67268 0 0 0                   
402 1 1 0 6.4741  12.94821  7.46907 0 0 0                   
403 1 1 0 8.32385 11.09847  5.20361 0 0 0                   
404 1 1 0 8.32385 11.09847  12  0 0 0                   
405 1 1 0 10.17359  12.02334  2.93814 0 0 0                   
406 1 1 0 10.17359  12.02334  9.73454 0 0 0                   
407 1 1 0 9.24872 12.94821  0.67268 0 0 0                   
408 1 1 0 9.24872 12.94821  7.46907 0 0 0                   
409 1 1 0 11.09847  11.09847  5.20361 0 0 0                   
410 1 1 0 11.09847  11.09847  12  0 0 0                   
411 1 1 0 12.94821  12.02334  2.93814 0 0 0                   
412 1 1 0 12.94821  12.02334  9.73454 0 0 0                   
413 1 1 0 12.02334  12.94821  0.67268 0 0 0                   
414 1 1 0 12.02334  12.94821  7.46907 0 0 0                   
415 1 1 0 13.87308  11.09847  5.20361 0 0 0                   
416 1 1 0 13.87308  11.09847  12  0 0 0                   
417 1 1 0 15.72283  12.02334  2.93814 0 0 0                   
418 1 1 0 15.72283  12.02334  9.73454 0 0 0                   
419 1 1 0 14.79795  12.94821  0.67268 0 0 0                   
420 1 1 0 14.79795  12.94821  7.46907 0 0 0                   
421 1 1 0 16.6477 11.09847  5.20361 0 0 0                   
422 1 1 0 16.6477 11.09847  12  0 0 0                   
423 1 1 0 18.49744  12.02334  2.93814 0 0 0                   
424 1 1 0 18.49744  12.02334  9.73454 0 0 0                   
425 1 1 0 17.57257  12.94821  0.67268 0 0 0                   
426 1 1 0 17.57257  12.94821  7.46907 0 0 0                   
427 1 1 0 19.42231  11.09847  5.20361 0 0 0                   
428 1 1 0 19.42231  11.09847  12  0 0 0                   
429 1 1 0 21.27206  12.02334  2.93814 0 0 0                   
430 1 1 0 21.27206  12.02334  9.73454 0 0 0                   
431 1 1 0 20.34719  12.94821  0.67268 0 0 0                   
432 1 1 0 20.34719  12.94821  7.46907 0 0 0                   
433 1 1 0 22.19693  11.09847  5.20361 0 0 0                   
434 1 1 0 22.19693  11.09847  12  0 0 0                   
435 1 1 0 24.04667  12.02334  2.93814 0 0 0                   
436 1 1 0 24.04667  12.02334  9.73454 0 0 0                   
437 1 1 0 23.1218 12.94821  0.67268 0 0 0                   
438 1 1 0 23.1218 12.94821  7.46907 0 0 0                   
439 1 1 0 24.97155  11.09847  5.20361 0 0 0                   
440 1 1 0 24.97155  11.09847  12  0 0 0                   
441 1 1 0 26.82129  12.02334  2.93814 0 0 0                   
442 1 1 0 26.82129  12.02334  9.73454 0 0 0                   
443 1 1 0 25.89642  12.94821  0.67268 0 0 0                   
444 1 1 0 25.89642  12.94821  7.46907 0 0 0                   
445 1 1 0 27.74616  11.09847  5.20361 0 0 0                   
446 1 1 0 27.74616  11.09847  12  0 0 0                   
447 1 1 0 29.59591  12.02334  2.93814 0 0 0                   
448 1 1 0 29.59591  12.02334  9.73454 0 0 0                   
449 1 1 0 28.67104  12.94821  0.67268 0 0 0                   
450 1 1 0 28.67104  12.94821  7.46907 0 0 0                   
451 1 1 0 30.52078  11.09847  5.20361 0 0 0                   
452 1 1 0 30.52078  11.09847  12  0 0 0                   
453 1 1 0 32.37052  12.02334  2.93814 0 0 0                   
454 1 1 0 32.37052  12.02334  9.73454 0 0 0                   
455 1 1 0 31.44565  12.94821  0.67268 0 0 0                   
456 1 1 0 31.44565  12.94821  7.46907 0 0 0                   
457 1 1 0 33.2954 11.09847  5.20361 0 0 0                   
458 1 1 0 33.2954 11.09847  12  0 0 0                   
459 1 1 0 35.14514  12.02334  2.93814 0 0 0                   
460 1 1 0 35.14514  12.02334  9.73454 0 0 0                   
461 1 1 0 34.22027  12.94821  0.67268 0 0 0                   
462 1 1 0 34.22027  12.94821  7.46907 0 0 0                   
463 1 1 0 36.07001  11.09847  5.20361 0 0 0                   
464 1 1 0 36.07001  11.09847  12  0 0 0                   
465 1 1 0 37.91976  12.02334  2.93814 0 0 0                   
466 1 1 0 37.91976  12.02334  9.73454 0 0 0                   
467 1 1 0 36.99488  12.94821  0.67268 0 0 0                   
468 1 1 0 36.99488  12.94821  7.46907 0 0 0                   
469 1 1 0 38.84463  11.09847  5.20361 0 0 0                   
470 1 1 0 38.84463  11.09847  12  0 0 0                   
471 1 1 0 40.69437  12.02334  2.93814 0 0 0                   
472 1 1 0 40.69437  12.02334  9.73454 0 0 0                   
473 1 1 0 39.7695 12.94821  0.67268 0 0 0                   
474 1 1 0 39.7695 12.94821  7.46907 0 0 0                   
475 1 1 0 41.61924  11.09847  5.20361 0 0 0                   
476 1 1 0 41.61924  11.09847  12  0 0 0                   
477 1 1 0 43.46899  12.02334  2.93814 0 0 0                   
478 1 1 0 43.46899  12.02334  9.73454 0 0 0                   
479 1 1 0 42.54412  12.94821  0.67268 0 0 0                   
480 1 1 0 42.54412  12.94821  7.46907 0 0 0                   
481 1 1 0 0 13.87308  5.20361 0 0 0                   
482 1 1 0 0 13.87308  12  0 0 0                   
483 1 1 0 1.84974 14.79795  2.93814 0 0 0                   
484 1 1 0 1.84974 14.79795  9.73454 0 0 0                   
485 1 1 0 0.92487 15.72283  0.67268 0 0 0                   
486 1 1 0 0.92487 15.72283  7.46907 0 0 0                   
487 1 1 0 2.77462 13.87308  5.20361 0 0 0                   
488 1 1 0 2.77462 13.87308  12  0 0 0                   
489 1 1 0 4.62436 14.79795  2.93814 0 0 0                   
490 1 1 0 4.62436 14.79795  9.73454 0 0 0                   