
#Set velocity (in km/s)
variable v equal 5

#Controls angle of impact
#a = angle from horizontal/10
variable        a equal 9

#Loop through the simulation several times with different random seeds
variable        b equal 1
label           loopb
variable        seed equal 240323*$b
variable        seed equal 240323*1

#Set up impact simulation
print		"<<<<<<<<< Vel=$v, Angle=$a, Test=$b >>>>>>>>>>>"
<<<<<<<<< Vel=5, Angle=9, Test=1 >>>>>>>>>>>
units	        real
newton	     	on
atom_style full

#Periodic boundary conditions
boundary        p p p

#Read the data file
read_data       data.${sname}
read_data       data.pth2o
  triclinic box = (0 0 0) to (44.3939 44.3939 50) with tilt (0 0 0)
  1 by 1 by 1 MPI processor grid
  reading atoms ...
  1539 atoms
  0 = max # of 1-2 neighbors
  0 = max # of 1-3 neighbors
  0 = max # of 1-4 neighbors
  1 = max # of special neighbors

#Obtain the REAX pair coefficients from the ffield file
pair_style      reax/c NULL safezone 5.0 mincap 1200
pair_coeff  	* * ffield.reax Pt H O

#Apply qeq charge equilibration
fix 		qeq all qeq/reax 1 0.0 10.0 1.0e-6 reax/c

#Details of how lammps computes neighboring atoms for pairwise interactions
neighbor        2.5  bin
neigh_modify    delay 10 every 2 check yes one 15000 page 150000

#group impacting H2O by atom ids
group impactor id 1537:1539
3 atoms in group impactor

#Print thermodynamic data every 10 steps
thermo          10

#Randomize initial position and set far to equilibrate
displace_atoms 	impactor move 20.0 20.0 0.0 units box

#Compute the center of mass of the impactor
compute         cmi impactor com
variable        xd equal c_cmi[1]
variable        yd equal c_cmi[2]
variable        zd equal c_cmi[3]
variable        ranangle equal random(0,90,${seed})
variable        ranangle equal random(0,90,240323)
thermo_style    custom step etotal pe ke temp press vol c_cmi[1] c_cmi[2] c_cmi[3]

#Rotate the impactor before beginning simulation
print ">>>>>> Rotated impactor by ${ranangle} <<<<<<<"
>>>>>> Rotated impactor by 38.1471168994904 <<<<<<<
run 0
Neighbor list info ...
  update every 2 steps, delay 10 steps, check yes
  max neighbors/atom: 15000, page size: 150000
  master list distance cutoff = 12.5
  ghost atom cutoff = 12.5
  binsize = 6.25, bins = 8 8 8
  2 neighbor lists, perpetual/occasional/extra = 2 0 0
  (1) pair reax/c, perpetual
      attributes: half, newton off, ghost
      pair build: half/bin/newtoff/ghost
      stencil: half/ghost/bin/3d/newtoff
      bin: standard
  (2) fix qeq/reax, perpetual, copy from (1)
      attributes: half, newton off, ghost
      pair build: copy
      stencil: none
      bin: none
Per MPI rank memory allocation (min/avg/max) = 655.1 | 655.1 | 655.1 Mbytes
Step TotEng PotEng KinEng Temp Press Volume c_cmi[1] c_cmi[2] c_cmi[3] 
       0   -175150.65   -175150.65            0            0   -10243.304    98540.745    22.227217    20.053875    32.690199 
Loop time of 1.90735e-06 on 1 procs for 0 steps with 1539 atoms

157.3% CPU use with 1 MPI tasks x no OpenMP threads

MPI task timing breakdown:
Section |  min time  |  avg time  |  max time  |%varavg| %total
---------------------------------------------------------------
Pair    | 0          | 0          | 0          |   0.0 |  0.00
Bond    | 0          | 0          | 0          |   0.0 |  0.00
Neigh   | 0          | 0          | 0          |   0.0 |  0.00
Comm    | 0          | 0          | 0          |   0.0 |  0.00
Output  | 0          | 0          | 0          |   0.0 |  0.00
Modify  | 0          | 0          | 0          |   0.0 |  0.00
Other   |            | 1.907e-06  |            |       |100.00

Nlocal:    1539 ave 1539 max 1539 min
Histogram: 1 0 0 0 0 0 0 0 0 0
Nghost:    5964 ave 5964 max 5964 min
Histogram: 1 0 0 0 0 0 0 0 0 0
Neighs:    291267 ave 291267 max 291267 min
Histogram: 1 0 0 0 0 0 0 0 0 0

Total # of neighbors = 291267
Ave neighs/atom = 189.257
Ave special neighs/atom = 0
Neighbor list builds = 0
Dangerous builds = 0
displace_atoms  impactor rotate ${xd} ${yd} ${zd} 0.0 0.0 1.0 ${ranangle}
displace_atoms  impactor rotate 22.22721660746 ${yd} ${zd} 0.0 0.0 1.0 ${ranangle}
displace_atoms  impactor rotate 22.22721660746 20.053874955595 ${zd} 0.0 0.0 1.0 ${ranangle}
displace_atoms  impactor rotate 22.22721660746 20.053874955595 32.6901990754796 0.0 0.0 1.0 ${ranangle}
displace_atoms  impactor rotate 22.22721660746 20.053874955595 32.6901990754796 0.0 0.0 1.0 6.82583034038544
displace_atoms  impactor rotate ${xd} ${yd} ${zd} 0.0 1.0 0.0 ${ranangle}
displace_atoms  impactor rotate 22.22721660746 ${yd} ${zd} 0.0 1.0 0.0 ${ranangle}
displace_atoms  impactor rotate 22.22721660746 20.053874955595 ${zd} 0.0 1.0 0.0 ${ranangle}
displace_atoms  impactor rotate 22.22721660746 20.053874955595 32.6901990754796 0.0 1.0 0.0 ${ranangle}
displace_atoms  impactor rotate 22.22721660746 20.053874955595 32.6901990754796 0.0 1.0 0.0 4.71330642700195
displace_atoms  impactor rotate ${xd} ${yd} ${zd} 1.0 0.0 0.0 ${ranangle}
displace_atoms  impactor rotate 22.22721660746 ${yd} ${zd} 1.0 0.0 0.0 ${ranangle}
displace_atoms  impactor rotate 22.22721660746 20.053874955595 ${zd} 1.0 0.0 0.0 ${ranangle}
displace_atoms  impactor rotate 22.22721660746 20.053874955595 32.6901990754796 1.0 0.0 0.0 ${ranangle}
displace_atoms  impactor rotate 22.22721660746 20.053874955595 32.6901990754796 1.0 0.0 0.0 0.0323742628097534

#Simulation timestep
timestep  	0.1

#Print data to lammptrj file
dump            1 all custom ${dumpstep}  ${sname}.$v.lammpstrj id type x y z vx vy vz
dump            1 all custom 100  ${sname}.$v.lammpstrj id type x y z vx vy vz
dump            1 all custom 100  pth2o.$v.lammpstrj id type x y z vx vy vz
dump            1 all custom 100  pth2o.5.lammpstrj id type x y z vx vy vz
dump_modify     1 sort id

#First, minimize structure
min_style       cg
minimize        0.0 1e-6 ${minsteps} 5000
minimize        0.0 1e-6 2000 5000
WARNING: Using 'neigh_modify every 1 delay 0 check yes' setting during minimization (../min.cpp:168)
Per MPI rank memory allocation (min/avg/max) = 657.7 | 657.7 | 657.7 Mbytes
Step TotEng PotEng KinEng Temp Press Volume c_cmi[1] c_cmi[2] c_cmi[3] 
       0   -175150.65   -175150.65            0            0   -10243.304    98540.745    22.227217    20.053875    32.690199 
      10   -180521.25   -180521.25            0            0   -14670.741    98540.745    22.270813     20.03625    32.718326 
      20   -183858.12   -183858.12            0            0     -14040.2    98540.745    22.270813    20.036249    32.718308 
      30    -187033.1    -187033.1            0            0   -12101.108    98540.745    22.270813     20.03625    32.718337 
      40   -189590.85   -189590.85            0            0   -9479.8697    98540.745    22.270813    20.036251    32.718354 
      50   -192125.99   -192125.99            0            0   -7461.2087    98540.745    22.270813     20.03625    32.718338 
      60    -193714.5    -193714.5            0            0    3907.6989    98540.745    22.240719    20.048416    32.698906 
      70   -193725.73   -193725.73            0            0    2580.4512    98540.745    22.233365    20.051389    32.694161 
      80   -193726.37   -193726.37            0            0    2241.1269    98540.745    22.235192     20.05065    32.695341 
      90   -193726.44   -193726.44            0            0    2163.7367    98540.745    22.235113    20.050683    32.695289 
     100   -193726.44   -193726.44            0            0    2167.0216    98540.745    22.235268     20.05062    32.695391 
     108   -193726.44   -193726.44            0            0    2166.1431    98540.745     22.23525    20.050627    32.695376 
Loop time of 44.2212 on 1 procs for 108 steps with 1539 atoms

99.4% CPU use with 1 MPI tasks x no OpenMP threads

Minimization stats:
  Stopping criterion = linesearch alpha is zero
  Energy initial, next-to-last, final = 
        -175150.648513     -193726.443519     -193726.443475
  Force two-norm initial, final = 630.233 0.0253096
  Force max component initial, final = 45.9564 0.0115236
  Final line search alpha, max atom move = 3.05176e-05 3.51673e-07
  Iterations, force evaluations = 108 259

MPI task timing breakdown:
Section |  min time  |  avg time  |  max time  |%varavg| %total
---------------------------------------------------------------
Pair    | 40.295     | 40.295     | 40.295     |   0.0 | 91.12
Bond    | 0.00015044 | 0.00015044 | 0.00015044 |   0.0 |  0.00
Neigh   | 0.025947   | 0.025947   | 0.025947   |   0.0 |  0.06
Comm    | 0.012265   | 0.012265   | 0.012265   |   0.0 |  0.03
Output  | 0.0059202  | 0.0059202  | 0.0059202  |   0.0 |  0.01
Modify  | 3.8631     | 3.8631     | 3.8631     |   0.0 |  8.74
Other   |            | 0.01901    |            |       |  0.04

Nlocal:    1539 ave 1539 max 1539 min
Histogram: 1 0 0 0 0 0 0 0 0 0
Nghost:    5964 ave 5964 max 5964 min
Histogram: 1 0 0 0 0 0 0 0 0 0
Neighs:    302424 ave 302424 max 302424 min
Histogram: 1 0 0 0 0 0 0 0 0 0

Total # of neighbors = 302424
Ave neighs/atom = 196.507
Ave special neighs/atom = 0
Neighbor list builds = 1
Dangerous builds = 0

#Then, run equilibration
velocity 	all create 300.0 4928459 rot yes dist gaussian #generates initial velocities at 100 K  via a gaussian distribution
fix 		equil all nvt temp 300.0 300.0 50.0 #nvt dynamics on all atoms at starting and ending temps of 100 K w 50 fs damping
run 		${eqsteps}
run 		500
Per MPI rank memory allocation (min/avg/max) = 657.8 | 657.8 | 657.8 Mbytes
Step TotEng PotEng KinEng Temp Press Volume c_cmi[1] c_cmi[2] c_cmi[3] 
     108    -192351.1   -193726.44    1375.3458          300    2804.1524    98540.745     22.23525    20.050627    32.695376 
     110    -192351.1   -193726.37    1375.2765    299.98489    2803.2746    98540.745    22.235151     20.05169    32.695155 
     120    -192351.1   -193724.09    1372.9956    299.48737     2801.258    98540.745    22.234652    20.057008     32.69405 
     130   -192351.09   -193719.37    1368.2772    298.45816    2803.7929    98540.745    22.234153    20.062326    32.692945 
     140   -192351.08   -193713.21    1362.1292    297.11712    2811.4084    98540.745    22.233655    20.067643     32.69184 
     150   -192351.07   -193705.71      1354.64    295.48351      2824.29    98540.745    22.233156    20.072961    32.690735 
     160   -192351.04      -193696    1344.9603    293.37212     2842.147    98540.745    22.232657    20.078279     32.68963 
     170   -192350.98   -193683.26    1332.2798    290.60616    2864.0728    98540.745    22.232159    20.083596    32.688525 
     180   -192350.89   -193667.81    1316.9175    287.25523    2888.6684    98540.745     22.23166    20.088914     32.68742 
     190   -192350.75    -193650.9    1300.1474    283.59721    2914.6294    98540.745    22.231161    20.094233    32.686315 
     200   -192350.56    -193633.1    1282.5375    279.75601    2941.4197    98540.745    22.230663    20.099551     32.68521 
     210    -192350.3   -193613.49    1263.1862    275.53498       2969.6    98540.745    22.230164     20.10487    32.684105 
     220   -192349.96   -193591.13    1241.1685    270.73232    3000.5242    98540.745    22.229665     20.11019       32.683 
     230   -192349.53   -193566.38    1216.8525    265.42834    3035.3443    98540.745    22.229166     20.11551    32.681894 
     240      -192349   -193540.43    1191.4336    259.88379    3074.4156    98540.745    22.228667    20.120831    32.680789 
     250   -192348.35   -193514.03    1165.6817    254.26663    3117.5112    98540.745    22.228168    20.126154    32.679683 
     260   -192347.57   -193486.81    1139.2355    248.49799    3164.0666    98540.745    22.227669    20.131479    32.678577 
     270   -192346.65   -193457.74    1111.0857    242.35777    3213.1267    98540.745    22.227169    20.136805     32.67747 
     280   -192345.59   -193426.56    1080.9685    235.78837    3262.9979    98540.745    22.226669    20.142134    32.676363 
     290   -192344.36   -193394.38    1050.0186    229.03738    3312.0357    98540.745    22.226169    20.147465    32.675255 
     300   -192342.97   -193362.34    1019.3663    222.35128    3360.0104    98540.745    22.225669      20.1528    32.674146 
     310   -192341.42   -193330.11    988.69753    215.66159    3407.8285    98540.745    22.225169    20.158139    32.673037 
     320   -192339.69   -193296.73    957.03695    208.75557    3456.7316    98540.745    22.224667    20.163482    32.671927 
     330    -192337.8   -193262.03    924.23005     201.5995    3507.6913    98540.745    22.224166    20.168831    32.670816 
     340   -192335.76   -193226.89    891.12991    194.37947    3560.9278    98540.745    22.223664    20.174184    32.669703 
     350   -192333.57   -193192.32    858.74772    187.31604    3615.9193    98540.745    22.223161    20.179545     32.66859 
     360   -192331.26   -193158.58    827.31098    180.45884     3671.696    98540.745    22.222658    20.184912    32.667474 
     370   -192328.85    -193124.9    796.05144    173.64029      3727.08    98540.745    22.222154    20.190287    32.666358 
     380   -192326.37   -193090.54    764.16946    166.68597    3780.8272    98540.745    22.221649    20.195671    32.665239 
     390   -192323.84   -193055.89    732.04965    159.67977    3831.8201    98540.745    22.221143    20.201063    32.664119 
     400   -192321.32   -193022.25    700.92936     152.8916    3879.5648    98540.745    22.220637    20.206464    32.662996 
     410   -192318.82   -192990.08    671.25851    146.41958    3924.5955    98540.745    22.220129    20.211875    32.661872 
     420   -192316.39   -192958.69    642.30177    140.10334    3968.2644    98540.745    22.219621    20.217296    32.660746 
     430   -192314.05   -192927.44    613.38673    133.79619    4011.9251    98540.745    22.219112    20.222728    32.659617 
     440   -192311.82   -192896.58    584.75914    127.55174    4056.0028    98540.745    22.218602    20.228169    32.658487 
     450   -192309.71   -192867.04    557.33756    121.57035    4099.7511    98540.745     22.21809     20.23362    32.657354 
     460   -192307.71   -192839.58    531.86911      116.015    4141.8336    98540.745    22.217578    20.239082    32.656219 
     470   -192305.83   -192813.92    508.09268    110.82872    4180.8764    98540.745    22.217065    20.244553    32.655082 
     480   -192304.03   -192789.05    485.01301    105.79442    4215.7504    98540.745    22.216551    20.250035    32.653944 
     490   -192302.32   -192764.66    462.33805     100.8484    4245.9145    98540.745    22.216036    20.255526    32.652803 
     500   -192300.67    -192741.7     441.0322    96.201017    4271.5806    98540.745     22.21552    20.261027     32.65166 
     510   -192299.07   -192721.14    422.06104    92.062896    4293.5471    98540.745    22.215003    20.266539    32.650514 
     520   -192297.51    -192702.8    405.29002    88.404683    4312.9717    98540.745    22.214486     20.27206    32.649367 
     530   -192295.96    -192685.9    389.94144    85.056743    4330.9766    98540.745    22.213967    20.277593    32.648218 
     540   -192294.43   -192670.02    375.59325    81.927016    4348.0507    98540.745    22.213447    20.283136    32.647066 
     550    -192292.9   -192655.52    362.62641      79.0986     4363.678    98540.745    22.212926     20.28869    32.645912 
     560   -192291.36    -192643.3    351.93801    76.767172    4376.6613    98540.745    22.212404    20.294257    32.644755 
     570   -192289.81   -192633.76    343.94813    75.024362    4385.7268    98540.745    22.211881    20.299835    32.643596 
     580   -192288.24   -192626.13     337.8888    73.702659    4389.9612    98540.745    22.211357    20.305426    32.642435 
     590   -192286.65   -192619.36    332.70682    72.572331    4389.0723    98540.745    22.210831    20.311031     32.64127 
     600   -192285.03   -192613.56    328.52685    71.660566    4383.5488    98540.745    22.210304    20.316648    32.640103 
     608   -192283.72   -192610.36    326.63393    71.247669    4376.4833    98540.745    22.209882    20.321153    32.639167 
Loop time of 85.3489 on 1 procs for 500 steps with 1539 atoms

Performance: 0.051 ns/day, 474.160 hours/ns, 5.858 timesteps/s
99.7% CPU use with 1 MPI tasks x no OpenMP threads

MPI task timing breakdown:
Section |  min time  |  avg time  |  max time  |%varavg| %total
---------------------------------------------------------------
Pair    | 78.906     | 78.906     | 78.906     |   0.0 | 92.45
Bond    | 0.00024796 | 0.00024796 | 0.00024796 |   0.0 |  0.00
Neigh   | 0.0261     | 0.0261     | 0.0261     |   0.0 |  0.03
Comm    | 0.022917   | 0.022917   | 0.022917   |   0.0 |  0.03
Output  | 0.032427   | 0.032427   | 0.032427   |   0.0 |  0.04
Modify  | 6.3561     | 6.3561     | 6.3561     |   0.0 |  7.45
Other   |            | 0.005564   |            |       |  0.01

Nlocal:    1539 ave 1539 max 1539 min
Histogram: 1 0 0 0 0 0 0 0 0 0
Nghost:    5964 ave 5964 max 5964 min
Histogram: 1 0 0 0 0 0 0 0 0 0
Neighs:    311168 ave 311168 max 311168 min
Histogram: 1 0 0 0 0 0 0 0 0 0

Total # of neighbors = 311168
Ave neighs/atom = 202.188
Ave special neighs/atom = 0
Neighbor list builds = 1
Dangerous builds = 0
unfix 		equil

#Bring the impactor close to the surface
displace_atoms  impactor move 0.0 0.0 -15.0 units box

#Give the impactor a velocity toward the surface
variable 	impv equal $v*-0.01
variable 	impv equal 5*-0.01
variable 	ang equal PI*$a*10/180.0
variable 	ang equal PI*9*10/180.0
variable 	vy equal ${impv}*cos(${ang})
variable 	vy equal -0.05*cos(${ang})
variable 	vy equal -0.05*cos(1.5707963267949)
variable 	vz equal ${impv}*sin(${ang})
variable 	vz equal -0.05*sin(${ang})
variable 	vz equal -0.05*sin(1.5707963267949)
velocity 	impactor set NULL ${vy} ${vz} sum yes units box
velocity 	impactor set NULL 1.74574066942157e-16 ${vz} sum yes units box
velocity 	impactor set NULL 1.74574066942157e-16 -0.05 sum yes units box

#Guess the number of steps that will be needed
variable impsteps equal ceil(-20/${vz}*10)
variable impsteps equal ceil(-20/-0.05*10)

#Run the impact simulation
fix  		dyn all nve
fix 		frags all reax/c/species 10 10 100 species.$b.$a.out element Pt H O cutoff 2 2 .88 cutoff 3 3 .88 cutoff 2 3 .88
fix 		frags all reax/c/species 10 10 100 species.1.$a.out element Pt H O cutoff 2 2 .88 cutoff 3 3 .88 cutoff 2 3 .88
fix 		frags all reax/c/species 10 10 100 species.1.9.out element Pt H O cutoff 2 2 .88 cutoff 3 3 .88 cutoff 2 3 .88
WARNING: Resetting reneighboring criteria for fix reax/c/species (../fix_reaxc_species.cpp:103)
fix  		bonds all reax/c/bonds 100 bonds.reaxc.$b.$a.${sname}
fix  		bonds all reax/c/bonds 100 bonds.reaxc.1.$a.${sname}
fix  		bonds all reax/c/bonds 100 bonds.reaxc.1.9.${sname}
fix  		bonds all reax/c/bonds 100 bonds.reaxc.1.9.pth2o
run 		${impsteps}
run 		4000
Per MPI rank memory allocation (min/avg/max) = 668.8 | 668.8 | 668.8 Mbytes
Step TotEng PotEng KinEng Temp Press Volume c_cmi[1] c_cmi[2] c_cmi[3] 
     608   -192227.41   -192610.38    382.97915    83.538081    4402.5733    98540.745    22.209882    20.321153    17.639167 
     610    -192227.4   -192609.84    382.43817     83.42008    4400.3677    98540.745    22.209776     20.32228    17.628933 
     620    -192227.4   -192608.69    381.28574    83.168701    4388.1495    98540.745    22.209248    20.327916    17.577761 
     630    -192227.4   -192609.56    382.15649    83.358637    4374.8462    98540.745    22.208719    20.333552    17.526589 
     640    -192227.4   -192611.51    384.11041     83.78484    4361.1755    98540.745    22.208191    20.339187    17.475416 
     650   -192227.41   -192614.19     386.7808    84.367322    4346.7228    98540.745    22.207662    20.344823    17.424242 
     660   -192227.41   -192618.22    390.81378    85.247026     4330.031    98540.745    22.207134    20.350459    17.373068 
     670   -192227.41   -192624.54    397.13076    86.624929    4309.5783    98540.745    22.206605    20.356095    17.321892 
     680   -192227.41    -192632.9    405.48187     88.44653    4284.7019    98540.745    22.206077    20.361731    17.270716 
     690   -192227.41   -192641.97    414.56044    90.426813    4255.8212    98540.745    22.205548    20.367367    17.219538 
     700   -192227.41   -192651.16    423.75044    92.431398    4224.0177    98540.745     22.20502    20.373003     17.16836 
     710   -192227.41   -192661.18    433.77344    94.617685    4190.4875    98540.745    22.204491    20.378639    17.117181 
     720   -192227.41   -192672.95     445.5451    97.185402    4156.3233    98540.745    22.203963    20.384275       17.066 
     730   -192227.41   -192686.43     459.0197    100.12458    4122.4137    98540.745    22.203434    20.389911    17.014819 
     740   -192227.41   -192700.63    473.22107    103.22228    4089.2205    98540.745    22.202906    20.395547    16.963636 
     750   -192227.41    -192714.6    487.18652    106.26852    4056.5176    98540.745    22.202377    20.401183    16.912452 
     760   -192227.41   -192728.39    500.97722    109.27664    4023.3053    98540.745    22.201849    20.406819    16.861267 
     770   -192227.41    -192743.1    515.68633     112.4851    3988.2553    98540.745     22.20132    20.412454    16.810081 
     780   -192227.41   -192759.31    531.90295    116.02238    3950.3634    98540.745    22.200792     20.41809    16.758893 
     790   -192227.41      -192776    548.58856    119.66196    3909.7991    98540.745    22.200263    20.423726    16.707703 
     800   -192227.41   -192791.83    564.41829    123.11485    3868.1966    98540.745    22.199734    20.429362    16.656512 
     810   -192227.41   -192806.89    579.48946    126.40228    3827.2869    98540.745    22.199206    20.434998    16.605319 
     820    -192227.4   -192822.29    594.88882     129.7613    3788.0069    98540.745    22.198677    20.440634    16.554124 
     830   -192227.41   -192838.61    611.20602    133.32052    3750.8134    98540.745    22.198149     20.44627    16.502927 
     840   -192227.41   -192855.23    627.82131    136.94476    3715.8857    98540.745     22.19762    20.451906    16.451728 
     850   -192227.41    -192870.9    643.49013    140.36255     3682.871    98540.745    22.197092    20.457541    16.400527 
     860   -192227.41   -192885.11    657.69298    143.46058    3650.6334    98540.745    22.196563    20.463177    16.349324 
     870   -192227.41   -192898.76    671.34336    146.43809    3617.7711    98540.745    22.196034    20.468813    16.298118 
     880   -192227.42   -192912.98    685.56012    149.53915    3583.6813    98540.745    22.195506    20.474449    16.246909 
     890   -192227.41   -192927.38    699.96875    152.68206     3548.914    98540.745    22.194977    20.480085    16.195697 
     900   -192227.41   -192940.65      713.235    155.57579    3514.7865    98540.745    22.194449     20.48572    16.144483 
     910   -192227.41   -192952.26     724.8491    158.10914    3482.7467    98540.745     22.19392    20.491356    16.093265 
     920   -192227.41   -192962.94    735.53259    160.43949    3453.7194    98540.745    22.193392    20.496992    16.042043 
     930   -192227.41   -192973.62    746.21518    162.76965    3427.9635    98540.745    22.192863    20.502627    15.990818 
     940   -192227.41   -192984.36    756.94839    165.11086    3405.2393    98540.745    22.192335    20.508263    15.939588 
     950   -192227.41   -192994.16     766.7525     167.2494    3385.0218    98540.745    22.191806    20.513899    15.888354 
     960   -192227.41   -193002.05    774.63801    168.96944    3366.5212    98540.745    22.191278    20.519534    15.837115 
     970   -192227.41   -193008.34    780.93255    170.34245    3348.3802    98540.745     22.19075     20.52517    15.785871 
     980   -192227.41   -193014.46     787.0454    171.67583    3329.2518    98540.745    22.190221    20.530805     15.73462 
     990   -192227.41   -193020.84    793.43551    173.06968    3309.4884    98540.745    22.189693    20.536441    15.683363 
    1000   -192227.41   -193026.42     799.0138    174.28646    3290.9983    98540.745    22.189165    20.542076    15.632099 
    1010   -192227.41   -193030.24    802.83386    175.11972    3275.5745    98540.745    22.188637    20.547712    15.580827 
    1020   -192227.41   -193032.56    805.15406    175.62581    3263.9303    98540.745    22.188109    20.553347    15.529547 
    1030   -192227.41   -193034.35    806.94388    176.01622    3255.7618    98540.745    22.187581    20.558983    15.478259 
    1040   -192227.41   -193036.24    808.83363    176.42843    3250.2626    98540.745    22.187053    20.564618    15.426961 
    1050   -192227.41    -193037.8    810.38485    176.76679    3246.4541    98540.745    22.186525    20.570253    15.375654 
    1060   -192227.42   -193037.94    810.52239    176.79679    3243.3026    98540.745    22.185997    20.575889    15.324336 
    1070   -192227.42   -193036.38    808.96062    176.45613    3239.8423    98540.745     22.18547    20.581524    15.273006 
    1080   -192227.42   -193034.17    806.75089    175.97413    3235.6585    98540.745    22.184942    20.587159    15.221664 
    1090   -192227.41   -193032.34    804.92234    175.57527    3231.1683    98540.745    22.184415    20.592794    15.170309 
    1100   -192227.41   -193030.61    803.20236     175.2001    3227.4118    98540.745    22.183888    20.598429     15.11894 
    1110   -192227.41   -193028.04    800.62783    174.63852    3225.6618    98540.745    22.183361    20.604064    15.067555 
    1120   -192227.41   -193024.21    796.80116    173.80382    3226.7655    98540.745    22.182834    20.609699    15.016155 
    1130   -192227.41   -193019.64    792.23218     172.8072    3230.6302    98540.745    22.182307    20.615333    14.964737 
    1140   -192227.41   -193015.22    787.80982    171.84257    3236.3312    98540.745     22.18178    20.620968    14.913303 
    1150   -192227.41   -193011.28    783.86958     170.9831    3242.5972    98540.745    22.181254    20.626602    14.861848 
    1160   -192227.41   -193007.09    779.67787    170.06877    3248.5419    98540.745    22.180729    20.632237    14.810369 
    1170   -192227.41   -193001.81    774.39834    168.91716    3252.7046    98540.745    22.180205    20.637871    14.758865 
    1180   -192227.41   -192995.85    768.43785    167.61702     3254.523    98540.745    22.179684    20.643507    14.707332 
    1190   -192227.41   -192990.38    762.97733    166.42593    3255.3533    98540.745    22.179163    20.649143    14.655764 
    1200   -192227.41   -192985.83    758.41986    165.43182    3256.4453    98540.745    22.178644     20.65478    14.604157 
    1210   -192227.41   -192981.52    754.11202    164.49217    3258.9654    98540.745    22.178125    20.660419    14.552507 
    1220   -192227.41    -192976.7    749.28846    163.44002    3263.5452    98540.745    22.177608     20.66606    14.500809 
    1230   -192227.41   -192971.29    743.88111    162.26053    3269.8223    98540.745    22.177092    20.671703    14.449058 
    1240   -192227.41   -192966.07    738.65902    161.12145    3276.5213    98540.745    22.176579    20.677349    14.397251 
    1250   -192227.41   -192961.92    734.50529    160.21541    3282.1653    98540.745    22.176068    20.682997    14.345383 
    1260   -192227.41   -192958.68    731.26782    159.50923    3285.6349    98540.745     22.17556    20.688649    14.293452 
    1270   -192227.41   -192955.29    727.87424      158.769    3286.5128    98540.745    22.175055    20.694303    14.241453 
    1280   -192227.41   -192951.29    723.87575    157.89682    3285.1442    98540.745    22.174554    20.699959    14.189384 
    1290   -192227.37   -192947.47    720.09846    157.07289    3282.2984    98540.745    22.174058    20.705617     14.13724 
    1300   -192227.37   -192944.89    717.52053    156.51058    3278.9056    98540.745     22.17357    20.711275    14.085016 
    1310   -192227.37   -192943.53    716.16359    156.21459     3275.859    98540.745    22.173091    20.716929     14.03271 
    1320   -192227.37   -192942.61    715.24179    156.01352    3273.9007    98540.745    22.172626    20.722577    13.980322 
    1330   -192227.36   -192941.39     714.0303    155.74926    3273.3036    98540.745    22.172178    20.728214    13.927855 
    1340   -192227.36   -192939.96    712.59735     155.4367    3273.0102    98540.745    22.171753    20.733835    13.875325 
    1350   -192227.36   -192939.27    711.90767    155.28626    3270.7773    98540.745    22.171357    20.739433     13.82275 
    1360   -192227.36   -192940.05    712.68483    155.45578    3265.6876    98540.745       22.171    20.745001    13.770142 
    1370   -192227.36   -192941.64    714.28242    155.80426     3257.053    98540.745    22.170693    20.750532    13.717518 
    1380   -192227.36   -192942.91    715.55483    156.08181    3246.0881    98540.745    22.170452    20.756021    13.664895 
    1390   -192227.36   -192943.82    716.46025     156.2793    3234.2929    98540.745    22.170299    20.761461    13.612295 
    1400   -192227.35   -192945.21    717.85871    156.58434    3222.1267    98540.745    22.170254    20.766848    13.559749 
    1410   -192227.35   -192947.67    720.31106    157.11927    3210.0044    98540.745    22.170341    20.772176    13.507305 
    1420   -192227.36   -192950.89    723.53762    157.82307     3198.357    98540.745    22.170578    20.777444    13.455037 
    1430   -192227.36   -192954.14    726.77935    158.53018    3187.0616    98540.745    22.170978    20.782648    13.403042 
    1440   -192227.36   -192956.76    729.39969    159.10174     3177.071    98540.745    22.171539    20.787792     13.35143 
    1450   -192227.36   -192958.71    731.35332    159.52788     3166.937    98540.745    22.172262    20.792881    13.300358 
    1460   -192227.36   -192960.65    733.29251    159.95087    3155.7962    98540.745    22.173151    20.797932    13.250016 
    1470   -192227.36   -192963.11    735.75473    160.48795    3142.8719    98540.745     22.17421    20.802962    13.200619 
    1480   -192227.36   -192965.86    738.50147    161.08709    3128.1824    98540.745    22.175447    20.807989    13.152397 
    1490   -192227.36   -192968.21    740.85295    161.60001    3112.3849    98540.745    22.176872    20.813026    13.105586 
    1500   -192227.36   -192969.92    742.56026    161.97242    3096.1006    98540.745    22.178493    20.818082    13.060421 
    1510   -192227.36   -192971.48    744.12379    162.31347    3079.4299    98540.745    22.180306    20.823159    13.017128 
    1520   -192227.36   -192973.68    746.32774    162.79421    3062.1634    98540.745    22.182278    20.828248    12.975892 
    1530   -192227.36   -192976.85    749.49666    163.48543    3044.4556    98540.745    22.184331    20.833327    12.936844 
    1540   -192227.36   -192980.55    753.18777    164.29057    3026.8559    98540.745    22.186339    20.838359    12.900058 
    1550   -192227.36   -192983.95    756.58723    165.03208    3009.8083    98540.745    22.188147    20.843301    12.865588 
    1560   -192227.36   -192986.56    759.19275    165.60041    2993.2702    98540.745    22.189591    20.848109    12.833482 
    1570   -192227.37   -192988.65    761.28042    166.05579    2976.8644    98540.745    22.190503     20.85274    12.803792 
    1580   -192227.37   -192991.16    763.78584    166.60229    2960.1808    98540.745    22.190722    20.857159    12.776576 
    1590   -192227.38   -192994.83    767.45946     167.4036    2942.8839    98540.745    22.190091    20.861336    12.751893 
    1600   -192227.38   -192999.56    772.18039    168.43337    2926.0439    98540.745    22.188468     20.86525      12.7298 
    1610   -192227.38   -193004.58    777.20491    169.52935    2909.6018    98540.745    22.185736    20.868897    12.710368 
    1620   -192227.37   -193009.34     781.9673    170.56816    2893.6352    98540.745    22.181798    20.872277    12.693644 
    1630   -192227.37   -193013.87    786.49856    171.55655    2878.4681    98540.745    22.176576    20.875383    12.679636 
    1640   -192227.37   -193018.42    791.04879    172.54907    2863.8506    98540.745    22.170035      20.8782    12.668322 
    1650   -192227.37   -193022.93     795.5622    173.53357     2849.518    98540.745    22.162192    20.880704    12.659659 
    1660   -192227.37   -193026.92     799.5519    174.40383    2835.5717    98540.745    22.153129    20.882881    12.653597 
    1670   -192227.36   -193029.77     802.4066    175.02652    2822.3558    98540.745    22.142974    20.884733    12.650095 
    1680   -192227.36   -193031.17    803.80856    175.33232    2810.4277    98540.745    22.131891    20.886286    12.649127 
    1690   -192227.36   -193031.41    804.05031    175.38506    2799.5399    98540.745    22.120054    20.887574    12.650677 
    1700   -192227.36   -193031.41     804.0495    175.38488    2789.4527    98540.745     22.10764    20.888625    12.654739 
    1710   -192227.36   -193032.18    804.82687    175.55444    2779.9687    98540.745    22.094809    20.889453    12.661306 
    1720   -192227.36   -193033.95    806.59295    175.93967    2771.7344    98540.745    22.081692    20.890057    12.670371 
    1730   -192227.36   -193035.61    808.24966    176.30105    2765.6779    98540.745    22.068385    20.890434    12.681927 
    1740   -192227.36    -193035.9     808.5469    176.36588    2761.0432    98540.745    22.054944    20.890585    12.695969 
    1750   -192227.35   -193035.26    807.90775    176.22647    2755.4303    98540.745    22.041412    20.890505    12.712449 
    1760   -192227.35   -193035.23    807.88053    176.22053    2748.4435    98540.745    22.027831    20.890182    12.731284 
    1770   -192227.36   -193036.22    808.85771    176.43368    2740.3144    98540.745    22.014247     20.88959     12.75234 
    1780   -192227.36   -193036.97    809.60918    176.59759    2731.6358    98540.745    22.000722    20.888695    12.775453 
    1790   -192227.36   -193036.16    808.80646     176.4225    2724.2113    98540.745    21.987321    20.887456    12.800449 
    1800   -192227.36    -193033.7    806.34505     175.8856    2719.9065    98540.745    21.974097    20.885836    12.827185 
    1810   -192227.36   -193030.33    802.97748    175.15104    2718.2039    98540.745    21.961091    20.883811    12.855555 
    1820   -192227.36    -193027.1    799.74102    174.44508    2718.3511    98540.745    21.948336    20.881368    12.885461 
    1830   -192227.36   -193024.85    797.49445    173.95505    2720.3417    98540.745    21.935865    20.878513    12.916798 
    1840   -192227.36   -193023.77    796.40888    173.71825     2723.627    98540.745    21.923706    20.875264    12.949469 
    1850   -192227.36   -193023.06    795.69583    173.56272    2727.2773    98540.745    21.911885    20.871647    12.983379 
    1860   -192227.36   -193021.38    794.01839    173.19682    2730.6956    98540.745    21.900414    20.867699    13.018426 
    1870   -192227.36   -193017.86    790.50159    172.42972    2732.7506    98540.745    21.889293    20.863466    13.054503 
    1880   -192227.35   -193012.76    785.40817     171.3187    2732.6762    98540.745    21.878512    20.858995    13.091502 
    1890   -192227.35   -193007.04    779.69264    170.07199    2731.6883    98540.745    21.868049    20.854337    13.129315 
    1900   -192227.34   -193001.29    773.94685    168.81868    2733.4821    98540.745    21.857876    20.849541    13.167842 
    1910   -192227.34    -192995.4    768.05993    167.53458    2736.2016    98540.745    21.847962    20.844649    13.206989 
    1920   -192227.33   -192989.28    761.94591    166.20095    2730.0336    98540.745    21.838275    20.839694    13.246669 
    1930   -192227.33   -192983.53    756.20126    164.94789    2728.8165    98540.745    21.828787    20.834693    13.286803 
    1940   -192227.34   -192979.55    752.20913     164.0771    2735.5575    98540.745    21.819473     20.82965    13.327323 
    1950   -192227.34    -192977.3    749.95864     163.5862    2745.8471    98540.745    21.810316    20.824561    13.368189 
    1960   -192227.35   -192975.26    747.90362    163.13795    2756.8882    98540.745    21.801301    20.819413    13.409376 
    1970   -192227.36   -192971.42    744.05305    162.29804    2765.7452    98540.745    21.792423    20.814195    13.450866 
    1980   -192227.37   -192965.36    737.99384    160.97636    2769.5052    98540.745    21.783672    20.808896    13.492626 
    1990   -192227.37   -192958.81    731.44323    159.54749    2767.5878    98540.745    21.775036    20.803515    13.534606 
    2000   -192227.41   -192953.38    725.96789    158.35318    2761.6926    98540.745    21.766496    20.798053     13.57674 
    2010   -192227.43   -192948.85    721.42413    157.36206    2754.3943    98540.745    21.758033    20.792519    13.618956 
    2020   -192227.43   -192944.58    717.15937     156.4318    2747.9746    98540.745    21.749622    20.786922    13.661189 
    2030   -192227.42   -192940.75    713.32307      155.595    2744.2794    98540.745    21.741246    20.781271    13.703389 
    2040   -192227.42   -192938.05    710.62527    155.00653    2743.7531    98540.745    21.732889    20.775576    13.745526 
    2050   -192227.42      -192937    709.57548    154.77755    2745.7174    98540.745    21.724539    20.769847    13.787582 
    2060   -192227.38   -192937.24    709.86499     154.8407    2749.2982    98540.745    21.716189    20.764092    13.829549 
    2070   -192227.38    -192937.4    710.02238    154.87503    2751.5931    98540.745    21.707832    20.758318    13.871426 
    2080   -192227.37   -192935.64    708.26711    154.49216    2752.4989    98540.745    21.699466    20.752532    13.913215 
    2090   -192227.37   -192931.63    704.26053    153.61821    2756.2375    98540.745     21.69109    20.746738     13.95491 
    2100   -192227.36   -192929.85    702.48766     153.2315    2726.3637    98540.745    21.682702    20.740941    13.996501 
    2110   -192227.35   -192928.47    701.12151    152.93351    2694.6164    98540.745      21.6743    20.735146    14.037975 
    2120   -192227.35   -192928.48     701.1328    152.93597    2677.4066    98540.745    21.665881    20.729357    14.079322 
    2130   -192227.35   -192931.34    703.98882    153.55895    2670.1992    98540.745    21.657446    20.723575    14.120542 
    2140   -192227.36    -192935.4    708.04052    154.44273    2671.3612    98540.745    21.648997    20.717801    14.161646 
    2150   -192227.37   -192937.71    710.33245    154.94266    2676.8422    98540.745    21.640536    20.712034    14.202649 
    2160   -192227.38   -192938.75    711.36815    155.16858    2676.9396    98540.745    21.632068    20.706274     14.24357 
    2170   -192227.45   -192942.03    714.57706    155.86853    2663.9551    98540.745    21.623593    20.700521     14.28442 
    2180   -192227.45   -192946.67    719.21746    156.88072    2641.2407    98540.745    21.615111    20.694775    14.325207 
    2190   -192227.44   -192949.75    722.30772    157.55479    2612.5903    98540.745    21.606624    20.689033    14.365935 
    2200   -192227.43   -192951.26     723.8287    157.88656    2582.7523    98540.745    21.598132    20.683297    14.406608 
    2210   -192227.43   -192953.44    726.01486    158.36342    2555.5364    98540.745    21.589635    20.677564    14.447227 
    2220   -192227.42   -192958.13    730.70321    159.38608    2533.5503    98540.745    21.581134    20.671836    14.487797 
    2230   -192227.43    -192965.5    738.07488    160.99404    2517.9198    98540.745    21.572628    20.666111    14.528321 
    2240   -192227.43   -192973.86    746.42402    162.81521    2507.8191    98540.745    21.564119    20.660388    14.568803 
    2250   -192227.44   -192980.64    753.19904    164.29302    2500.7611    98540.745    21.555607    20.654667     14.60925 
    2260   -192227.44   -192985.14    757.69842    165.27446    2492.3871    98540.745    21.547091    20.648948    14.649666 
    2270   -192227.44   -192989.73    762.29035    166.27608    2485.4927    98540.745    21.538573    20.643229    14.690054 
    2280   -192227.43   -192997.88    770.44573    168.05499    2451.8648    98540.745    21.530052    20.637511    14.730415 
    2290   -192227.42   -193003.78     776.3573    169.34446    2398.9629    98540.745     21.52153    20.631794    14.770749 
    2300   -192227.41   -193005.96    778.54864    169.82245    2361.5361    98540.745    21.513005    20.626078    14.811058 
    2310    -192227.4    -193009.8    782.39244    170.66089    2333.8953    98540.745    21.504478    20.620362    14.851343 
    2320   -192227.41   -193017.42    790.00833    172.32212    2315.8747    98540.745    21.495951    20.614647    14.891605 
    2330   -192227.42   -193027.38    799.96076    174.49301    2306.3647    98540.745    21.487422    20.608932    14.931846 
    2340   -192227.43   -193035.68    808.24644    176.30035    2301.8081    98540.745    21.478893    20.603217     14.97207 
    2350   -192227.45   -193039.15     811.7013    177.05394    2296.1637    98540.745    21.470365    20.597502    15.012279 
    2360   -192227.45   -193040.99     813.5356    177.45405    2278.0444    98540.745    21.461836    20.591787    15.052472 
    2370   -192227.45   -193046.17    818.71518    178.58386    2247.9738    98540.745    21.453307    20.586071    15.092652 
    2380   -192227.44   -193052.97    825.52623    180.06953    2212.0698    98540.745    21.444779    20.580356    15.132817 
    2390   -192227.43   -193057.32    829.88549    181.02041    2175.4239    98540.745     21.43625    20.574641    15.172969 
    2400   -192227.42   -193059.27    831.84326    181.44745    2143.2163    98540.745    21.427721    20.568926    15.213108 
    2410   -192227.42   -193061.55     834.1272    181.94564    2118.9407    98540.745    21.419192     20.56321    15.253234 
    2420   -192227.42   -193065.96    838.53406    182.90689     2103.798    98540.745    21.410663    20.557495    15.293349 
    2430   -192227.43   -193071.98    844.55576    184.22039     2096.506    98540.745    21.402133     20.55178    15.333452 
    2440   -192227.44   -193077.31    849.87299    185.38022    2093.8975    98540.745    21.393604    20.546065    15.373544 
    2450   -192227.44   -193079.42    851.97701    185.83916    2093.1367    98540.745    21.385075     20.54035    15.413627 
    2460   -192227.44   -193078.24    850.80545    185.58361    2096.4034    98540.745    21.376545    20.534635    15.453699 
    2470   -192227.43   -193080.84    853.40493    186.15063    2054.6865    98540.745    21.368016     20.52892    15.493762 
    2480   -192227.42    -193081.2    853.78342    186.23319    2012.9933    98540.745    21.359486    20.523205    15.533816 
    2490   -192227.41   -193079.11    851.69722    185.77813    1982.5929    98540.745    21.350956     20.51749     15.57386 
    2500    -192227.4    -193077.8    850.39729    185.49458    1962.1289    98540.745    21.342427    20.511775    15.613896 
    2510   -192227.41      -193079    851.59317    185.75544    1953.8266    98540.745    21.333897     20.50606    15.653924 
    2520   -192227.42   -193080.97    853.55124    186.18255    1956.3174    98540.745    21.325368    20.500346    15.693944 
    2530   -192227.44   -193080.05     852.6192    185.97924    1964.6769    98540.745    21.316838    20.494631    15.733957 
    2540   -192227.45   -193075.52    848.07214     184.9874    1972.3917    98540.745    21.308309    20.488917    15.773964 
    2550   -192227.45   -193071.55    844.09461     184.1198    1970.2899    98540.745    21.299779    20.483202    15.813966 
    2560   -192227.45    -193070.1    842.65015    183.80472    1953.5801    98540.745    21.291249    20.477488    15.853962 
    2570   -192227.44   -193067.57    840.12976    183.25496    1929.7949    98540.745    21.282719    20.471773    15.893953 
    2580   -192227.43   -193062.23    834.80025    182.09245    1905.0553    98540.745     21.27419    20.466059    15.933939 
    2590   -192227.42   -193055.73    828.30776    180.67626    1884.7842    98540.745     21.26566    20.460345     15.97392 
    2600   -192227.41   -193050.68    823.26209    179.57566    1872.9869    98540.745     21.25713    20.454631    16.013897 
    2610   -192227.42   -193048.25    820.83162    179.04551    1871.7274    98540.745      21.2486    20.448916     16.05387 
    2620   -192227.42   -193046.71    819.28333    178.70779     1880.235    98540.745     21.24007    20.443202    16.093839 
    2630   -192227.44   -193042.29    814.85131    177.74104    1894.7575    98540.745     21.23154    20.437488    16.133804 
    2640   -192227.44   -193033.15    805.70175    175.74528    1918.5237    98540.745     21.22301    20.431774    16.173766 
    2650   -192227.43   -193025.96    798.52606    174.18007    1932.7113    98540.745     21.21448     20.42606    16.213725 
    2660   -192227.43   -193025.61    798.17094    174.10261    1888.4318    98540.745    21.205951    20.420346     16.25368 
    2670   -192227.42   -193017.98    790.56357    172.44323     1864.323    98540.745    21.197421    20.414632    16.293633 
    2680   -192227.41   -193007.44    780.03311    170.14626    1847.7024    98540.745    21.188891    20.408918    16.333583 
    2690   -192227.41   -192998.89    771.47884    168.28034     1841.046    98540.745    21.180361    20.403204     16.37353 
    2700   -192227.41   -192994.37    766.95323    167.29318    1845.5297    98540.745    21.171831     20.39749    16.413475 
    2710   -192227.42   -192992.08    764.65787     166.7925     1859.138    98540.745    21.163301    20.391776    16.453417 
    2720   -192227.44   -192987.75    760.31149    165.84444    1877.2887    98540.745    21.154771    20.386062    16.493357 
    2730   -192227.45   -192978.55    751.10141    163.83547    1893.8236    98540.745    21.146241    20.380348    16.533295 
    2740   -192227.45   -192968.77    741.32043    161.70198    1899.9836    98540.745    21.137711    20.374634    16.573231 
    2750   -192227.45   -192964.96    737.51297    160.87147    1888.7001    98540.745    21.129181     20.36892    16.613166 
    2760   -192227.44   -192962.99    735.55061    160.44342    1868.8372    98540.745    21.120651    20.363206    16.653099 
    2770   -192227.43   -192957.01    729.58549    159.14227    1847.2469    98540.745    21.112121    20.357492     16.69303 
    2780   -192227.41   -192948.27    720.85499    157.23791    1830.5309    98540.745     21.10359    20.351778     16.73296 
    2790   -192227.41    -192941.1    713.69731    155.67663    1823.0681    98540.745     21.09506    20.346065    16.772888 
    2800   -192227.41   -192937.69    710.27815    154.93082     1826.234    98540.745     21.08653    20.340351    16.812814 
    2810   -192227.42    -192936.6    709.17933    154.69114    1838.1033    98540.745       21.078    20.334637     16.85274 
    2820   -192227.43   -192934.38    706.94152    154.20301    1855.1851    98540.745     21.06947    20.328923    16.892663 
    2830   -192227.44   -192927.27    699.83864    152.65368     1891.189    98540.745     21.06094    20.323209    16.932586 
    2840   -192227.44   -192925.58    698.13482    152.28203    1867.7021    98540.745     21.05241    20.317496    16.972507 
    2850   -192227.43   -192923.93    696.49628    151.92462     1834.303    98540.745     21.04388    20.311782    17.012426 
    2860   -192227.42   -192919.41    691.99381    150.94251    1810.1558    98540.745    21.035349    20.306068    17.052345 
    2870   -192227.41   -192914.58    687.17106    149.89054    1791.0625    98540.745    21.026819    20.300354    17.092262 
    2880   -192227.41   -192912.19    684.77727    149.36839    1780.9326    98540.745    21.018289    20.294641    17.132179 
    2890   -192227.42   -192912.78    685.36481    149.49655    1780.6172    98540.745    21.009759    20.288927    17.172094 
    2900   -192227.43   -192913.94    686.50683    149.74565    1787.8304    98540.745    21.001229    20.283213    17.212009 
    2910   -192227.44   -192912.72    685.27334     149.4766    1797.7439    98540.745    20.992698      20.2775    17.251922 
    2920   -192227.45   -192910.21     682.7545    148.92717    1804.1666    98540.745    20.984168    20.271786    17.291835 
    2930   -192227.45   -192911.08    683.62511    149.11707    1800.8872    98540.745    20.975638    20.266072    17.331747 
    2940   -192227.45   -192915.56    688.10736    150.09477    1780.4845    98540.745    20.967108    20.260359    17.371658 
    2950   -192227.43      -192918     690.5643     150.6307    1751.0546    98540.745    20.958577    20.254645    17.411568 
    2960   -192227.42   -192916.99    689.57619    150.41516    1721.0002    98540.745    20.950047    20.248931    17.451478 
    2970   -192227.41   -192915.66    688.25517    150.12701    1695.9711    98540.745    20.941517    20.243218    17.491386 
    2980    -192227.4    -192917.4    689.99976    150.50756    1680.3244    98540.745    20.932987    20.237504    17.531294 
    2990   -192227.41   -192922.94    695.53389     151.7147    1675.4229    98540.745    20.924456    20.231791    17.571201 
    3000   -192227.42    -192929.3    701.88251     153.0995    1679.2052    98540.745    20.915926    20.226077    17.611108 
    3010   -192227.44    -192931.4    703.96323    153.55337    1695.1531    98540.745    20.907396    20.220364    17.651013 
    3020   -192227.43   -192930.78    703.34763    153.41909    1708.3331    98540.745    20.898865     20.21465    17.690918 
    3030   -192227.44   -192938.75    711.30975    155.15584    1668.9245    98540.745    20.890335    20.208936    17.730823 
    3040   -192227.44   -192944.94    717.50013    156.50613    1636.7355    98540.745    20.881805    20.203223    17.770727 
    3050   -192227.42   -192946.83    719.40393     156.9214     1606.644    98540.745    20.873275    20.197509     17.81063 
    3060   -192227.42   -192947.27    719.85072    157.01886    1582.0547    98540.745    20.864744    20.191796    17.850533 
    3070   -192227.42   -192949.87    722.45799    157.58757    1565.7383    98540.745    20.856214    20.186082    17.890435 
    3080   -192227.42   -192955.91    728.49074    158.90348    1558.1836    98540.745    20.847684    20.180369    17.930337 
    3090   -192227.43   -192963.83    736.39926    160.62854    1557.5571    98540.745    20.839153    20.174655    17.970239 
    3100   -192227.45   -192970.38    742.93494    162.05415    1560.3407    98540.745    20.830623    20.168942     18.01014 
    3110   -192227.45   -192973.55    746.10091    162.74473     1561.305    98540.745    20.822093    20.163228    18.050042 
    3120   -192227.45   -192976.42    748.96718    163.36994    1554.7565    98540.745    20.813562    20.157515    18.089942 
    3130   -192227.44   -192983.45    756.00955    164.90607    1534.5768    98540.745    20.805032    20.151801    18.129843 
    3140   -192227.43   -192991.19    763.76329    166.59737    1504.3734    98540.745    20.796502    20.146087    18.169743 
    3150   -192227.42   -192994.69    767.27832    167.36409    1474.1022    98540.745    20.787971    20.140374    18.209643 
    3160   -192227.41   -192995.68    768.27721    167.58198    1450.3675    98540.745    20.779441     20.13466    18.249543 
    3170    -192227.4   -192998.22    770.81645    168.13586    1436.9541    98540.745    20.770911    20.128947    18.289443 
    3180   -192227.41   -193003.88    776.46866    169.36876    1434.3258    98540.745     20.76238    20.123233    18.329342 
    3190   -192227.42   -193011.03    783.61536    170.92764    1440.8912    98540.745     20.75385     20.11752    18.369241 
    3200   -192227.43   -193015.98    788.54453    172.00283    1460.7124    98540.745     20.74532    20.111806     18.40914 
    3210   -192227.44   -193019.26    791.82179    172.71769    1463.7334    98540.745    20.736789    20.106093    18.449039 
    3220   -192227.44    -193023.4    795.95952    173.62024    1439.4481    98540.745    20.728259    20.100379    18.488937 
    3230   -192227.44   -193025.85    798.40955    174.15465     1418.705    98540.745    20.719729    20.094666    18.528836 
    3240   -192227.43   -193027.05    799.62287    174.41931    1398.4519    98540.745    20.711198    20.088952    18.568734 
    3250   -192227.42   -193027.87    800.45059    174.59986    1382.8504    98540.745    20.702668    20.083239    18.608632 
    3260   -192227.42   -193029.53    802.10323    174.96035    1374.7647    98540.745    20.694138    20.077525    18.648531 
    3270   -192227.43   -193032.39    804.96004    175.58349    1375.2483    98540.745    20.685608    20.071812    18.688429 
    3280   -192227.43   -193035.49     808.0601     176.2597    1382.8425    98540.745    20.677077    20.066098    18.728327 
    3290   -192227.44   -193037.77    810.32448    176.75362    1394.3048    98540.745    20.668547    20.060385    18.768225 
    3300   -192227.45   -193039.56    812.10789    177.14263    1405.3361    98540.745    20.660017    20.054671    18.808123 
    3310   -192227.45   -193041.81    814.35789    177.63342     1411.238    98540.745    20.651486    20.048958    18.848021 
    3320   -192227.44   -193043.87    816.42572    178.08447    1407.2452    98540.745    20.642956    20.043244    18.887918 
    3330   -192227.43   -193043.97    816.53954    178.10929    1393.1428    98540.745    20.634426     20.03753    18.927816 
    3340   -192227.42   -193041.72    814.30479    177.62184    1378.0764    98540.745    20.625895    20.031817    18.967714 
    3350   -192227.41   -193039.06    811.65002    177.04276    1368.1832    98540.745    20.617365    20.026103    19.007612 
    3360    -192227.4   -193038.28    810.87777    176.87431    1367.1863    98540.745    20.608835     20.02039    19.047509 
    3370   -192227.41   -193039.98    812.57435    177.24438    1376.7743    98540.745    20.600304    20.014676    19.087407 
    3380   -192227.42   -193041.58    814.15753    177.58971    1399.3257    98540.745    20.591774    20.008963    19.127304 
    3390   -192227.43   -193039.15    811.72719    177.05959    1435.2527    98540.745    20.583244    20.003249    19.167202 
    3400   -192227.44   -193038.23     810.7897     176.8551    1440.8033    98540.745    20.574713    19.997536      19.2071 
    3410   -192227.44   -193039.19    811.75534    177.06573    1434.4059    98540.745    20.566183    19.991822    19.246997 
    3420   -192227.44   -193037.77    810.33085    176.75501    1429.9637    98540.745    20.557653    19.986109    19.286895 
    3430   -192227.43   -193033.26    805.83406    175.77414     1426.131    98540.745    20.549123    19.980395    19.326792 
    3440   -192227.43   -193027.94    800.51543      174.614    1426.4891    98540.745    20.540592    19.974682     19.36669 
    3450   -192227.43   -193024.25    796.82467    173.80895    1432.8625    98540.745    20.532062    19.968968    19.406587 
    3460   -192227.43   -193023.01    795.57647    173.53668    1445.6364    98540.745    20.523532    19.963255    19.446484 
    3470   -192227.44   -193023.11    795.67428    173.55802    1463.6051    98540.745    20.515001    19.957541    19.486382 
    3480   -192227.45   -193022.49    795.04522     173.4208    1484.2311    98540.745    20.506471    19.951828    19.526279 
    3490   -192227.45   -193020.23    792.78234    172.92721    1504.0121    98540.745    20.497941    19.946114    19.566177 
    3500   -192227.45    -193018.2    790.74959    172.48381    1518.7365    98540.745     20.48941    19.940401    19.606074 
    3510   -192227.44   -193017.96    790.52155    172.43407    1525.4537    98540.745     20.48088    19.934687    19.645971 
    3520   -192227.43   -193016.97    789.54143    172.22028    1523.6225    98540.745     20.47235    19.928973    19.685869 
    3530   -192227.41    -193012.5    785.08161    171.24747    1518.9525    98540.745    20.463819     19.92326    19.725766 
    3540   -192227.41   -193006.36    778.95162    169.91035    1519.2079    98540.745    20.455289    19.917546    19.765663 
    3550    -192227.4   -193002.13    774.72591    168.98861     1528.342    98540.745    20.446759    19.911833    19.805561 
    3560   -192227.41   -193001.13    773.72743    168.77082    1550.5568    98540.745    20.438228    19.906119    19.845458 
    3570   -192227.41   -193001.62    774.20746    168.87553    1584.9197    98540.745    20.429698    19.900406    19.885355 
    3580   -192227.42   -193003.05    775.63133    169.18611    1592.2419    98540.745    20.421168    19.894692    19.925252 
    3590   -192227.43   -193002.33    774.90412    169.02749     1596.875    98540.745    20.412637    19.888979     19.96515 
    3600   -192227.43    -192999.8    772.37233    168.47523    1606.1571    98540.745    20.404107    19.883265    20.005047 
    3610   -192227.43   -192997.37    769.93293    167.94313    1613.5587    98540.745    20.395577    19.877552    20.044944 
    3620   -192227.43   -192995.74    768.30845    167.58879    1620.1802    98540.745    20.387046    19.871838    20.084841 
    3630   -192227.44   -192994.29    766.85403    167.27154    1627.6725    98540.745    20.378516    19.866125    20.124738 
    3640   -192227.44   -192992.26    764.82393    166.82872    1636.8084    98540.745    20.369986    19.860411    20.164635 
    3650   -192227.44   -192989.97    762.53504    166.32946    1647.6009    98540.745    20.361456    19.854698    20.204533 
    3660   -192227.44   -192988.77    761.33298    166.06726    1659.4584    98540.745    20.352925    19.848984     20.24443 
    3670   -192227.44    -192989.8     762.3593    166.29112    1671.5303    98540.745    20.344395    19.843271    20.284327 
    3680   -192227.44   -192992.54    765.09861    166.88864    1682.8679    98540.745    20.335865    19.837557    20.324224 
    3690   -192227.44   -192995.06    767.62395    167.43948    1692.5362    98540.745    20.327334    19.831843    20.364121 
    3700   -192227.43    -192995.9    768.47164    167.62439    1699.7371    98540.745    20.318804     19.82613    20.404018 
    3710   -192227.42    -192995.2    767.78103    167.47375    1704.3292    98540.745    20.310274    19.820416    20.443915 
    3720   -192227.42   -192994.04    766.62513    167.22161    1709.3535    98540.745    20.301743    19.814703    20.483812 
    3730   -192227.41   -192992.76    765.35501    166.94457    1724.4935    98540.745    20.293213    19.808989    20.523709 
    3740   -192227.41      -192992    764.59604    166.77902    1726.6439    98540.745    20.284683    19.803276    20.563606 
    3750    -192227.4   -192991.94    764.54028    166.76685    1715.5453    98540.745    20.276152    19.797562    20.603503 
    3760    -192227.4   -192993.77    766.36052     167.1639    1723.0194    98540.745    20.267622    19.791849    20.643401 
    3770   -192227.41   -192998.14    770.72856    168.11668    1739.7201    98540.745    20.259092    19.786135    20.683298 
    3780   -192227.43   -193002.66    775.23892    169.10051    1759.6869    98540.745    20.250561    19.780422    20.723195 
    3790   -192227.44   -193004.48    777.04557     169.4946    1777.1701    98540.745    20.242031    19.774708    20.763092 
    3800   -192227.44   -193003.51    776.06171    169.27999     1787.447    98540.745    20.233501    19.768995    20.802989 
    3810   -192227.44   -193002.71    775.26655    169.10654    1790.3529    98540.745     20.22497    19.763281    20.842886 
    3820   -192227.44   -193003.95    776.51083    169.37795    1788.3504    98540.745     20.21644    19.757568    20.882783 
    3830   -192227.44   -193005.87    778.43274    169.79717    1784.9819    98540.745     20.20791    19.751854     20.92268 
    3840   -192227.43   -193006.98    779.55267    170.04146    1783.6852    98540.745    20.199379    19.746141    20.962577 
    3850   -192227.43   -193007.68    780.24893    170.19333    1787.1058    98540.745    20.190849    19.740427    21.002474 
    3860   -192227.43   -193009.07    781.64129    170.49705    1796.3579    98540.745    20.182319    19.734713    21.042371 
    3870   -192227.43   -193011.73    784.30148     171.0773    1810.7578    98540.745    20.173788       19.729    21.082268 
    3880   -192227.43   -193015.26    787.82304    171.84545     1828.184    98540.745    20.165258    19.723286    21.122165 
    3890   -192227.44    -193018.2    790.76134    172.48637    1845.3649    98540.745    20.156728    19.717573    21.162062 
    3900   -192227.43    -193018.4    790.96918    172.53171    1867.9418    98540.745    20.148198    19.711859    21.201959 
    3910   -192227.42   -193017.43     790.0029    172.32094    1874.0745    98540.745    20.139667    19.706146    21.241856 
    3920   -192227.41   -193016.87     789.4553    172.20149    1848.0824    98540.745    20.131137    19.700432    21.281753 
    3930    -192227.4   -193014.92    787.51343    171.77792     1840.043    98540.745    20.122607    19.694719     21.32165 
    3940    -192227.4    -193015.3    787.89663     171.8615    1844.2641    98540.745    20.114076    19.689005    21.361547 
    3950   -192227.41   -193018.81    791.39875    172.62541    1859.2546    98540.745    20.105546    19.683292    21.401444 
    3960   -192227.42   -193022.79    795.36825    173.49127    1883.6471    98540.745    20.097016    19.677578    21.441341 
    3970   -192227.43   -193023.27    795.83863    173.59387    1912.9077    98540.745    20.088485    19.671865    21.481238 
    3980   -192227.44   -193020.69    793.24941    173.02909    1936.8101    98540.745    20.079955    19.666151    21.521135 
    3990   -192227.45   -193019.82    792.36883    172.83701    1946.9768    98540.745    20.071425    19.660438    21.561032 
    4000   -192227.45   -193020.51    793.05653    172.98702    1947.5933    98540.745    20.062894    19.654724    21.600929 
    4010   -192227.44   -193019.35    791.91199    172.73736    1943.6896    98540.745    20.054364    19.649011    21.640826 
    4020   -192227.43   -193016.06    788.63164    172.02183    1940.5419    98540.745    20.045834    19.643297    21.680723 
    4030   -192227.42   -193012.98     785.5623    171.35232    1942.2296    98540.745    20.037303    19.637584     21.72062 
    4040   -192227.42   -193012.23    784.80952    171.18812    1951.5671    98540.745    20.028773     19.63187    21.760518 
    4050   -192227.42   -193013.93    786.50649    171.55828    1969.5102    98540.745    20.020243    19.626156    21.800415 
    4060   -192227.43   -193015.73    788.30392    171.95034    1994.7611    98540.745    20.011712    19.620443    21.840312 
    4070   -192227.44   -193014.22    786.78063    171.61807    2023.6399    98540.745    20.003182    19.614729    21.880209 
    4080   -192227.44   -193008.51    781.07132    170.37272    2060.9456    98540.745    19.994652    19.609016    21.920106 
    4090   -192227.43   -193005.81    778.38026    169.78573    2081.8967    98540.745    19.986121    19.603302    21.960003 
    4100   -192227.43   -193007.61    780.18542    170.17948    2054.2665    98540.745    19.977591    19.597589      21.9999 
    4110   -192227.41   -193002.96    775.55101    169.16859    2047.7856    98540.745    19.969061    19.591875    22.039797 
    4120    -192227.4   -192996.88    769.47502    167.84325    2050.9456    98540.745     19.96053    19.586162    22.079694 
    4130    -192227.4   -192993.34    765.93393    167.07085     2064.632    98540.745       19.952    19.580448    22.119591 
    4140   -192227.41      -192993    765.58862    166.99552    2088.8166    98540.745     19.94347    19.574735    22.159488 
    4150   -192227.43   -192993.47    766.04301    167.09464    2120.1171    98540.745     19.93494    19.569021    22.199385 
    4160   -192227.44   -192991.48    764.03305    166.65621    2153.4307    98540.745    19.926409    19.563308    22.239282 
    4170   -192227.45    -192986.1    758.65261    165.48259    2182.0474    98540.745    19.917879    19.557594    22.279179 
    4180   -192227.45   -192981.38    753.92707    164.45183    2195.1944    98540.745    19.909349    19.551881    22.319076 
    4190   -192227.45   -192979.63    752.18655    164.07217    2196.9112    98540.745    19.900818    19.546167    22.358973 
    4200   -192227.44    -192977.9    750.46663    163.69701    2194.0122    98540.745    19.892288    19.540454     22.39887 
    4210   -192227.42   -192973.77    746.34259    162.79745    2192.1615    98540.745    19.883758     19.53474    22.438767 
    4220   -192227.41    -192968.8    741.38972    161.71709    2196.4768    98540.745    19.875227    19.529026    22.478664 
    4230   -192227.41   -192965.67    738.26108    161.03465    2210.0628    98540.745    19.866697    19.523313    22.518561 
    4240   -192227.42   -192964.89    737.46875    160.86182    2233.1616    98540.745    19.858167    19.517599    22.558458 
    4250   -192227.43   -192964.44     737.0136    160.76254    2263.0565    98540.745    19.849636    19.511886    22.598355 
    4260   -192227.44   -192961.95    734.51642    160.21784    2297.6802    98540.745    19.841106    19.506172    22.638252 
    4270   -192227.43   -192956.19    728.76475    158.96325    2349.1133    98540.745    19.832576    19.500459    22.678149 
    4280   -192227.44   -192957.89    730.44821    159.33045    2324.3407    98540.745    19.824045    19.494745    22.718046 
    4290   -192227.42   -192954.81    727.39213    158.66384     2311.263    98540.745    19.815515    19.489032    22.757943 
    4300   -192227.41    -192949.4    721.98877    157.48522    2307.4816    98540.745    19.806985    19.483318     22.79784 
    4310   -192227.41   -192945.55    718.14536    156.64687    2311.4245    98540.745    19.798454    19.477605    22.837737 
    4320   -192227.41   -192945.28    717.86946    156.58669    2325.7167    98540.745    19.789924    19.471891    22.877634 
    4330   -192227.42   -192947.12    719.69699    156.98532    2349.5428    98540.745    19.781394    19.466178    22.917532 
    4340   -192227.44   -192946.89    719.44687    156.93077      2379.04    98540.745    19.772863    19.460464    22.957429 
    4350   -192227.45   -192942.28     714.8335    155.92446    2407.7846    98540.745    19.764333    19.454751    22.997326 
    4360   -192227.45    -192938.2    710.74996    155.03373     2429.188    98540.745    19.755803    19.449037    23.037223 
    4370   -192227.45   -192940.47    713.01425    155.52764    2434.6674    98540.745    19.747272    19.443324     23.07712 
    4380   -192227.44   -192944.05    716.60502    156.31088    2427.4685    98540.745    19.738742     19.43761    23.117017 
    4390   -192227.43   -192942.97    715.54652    156.07999    2416.6634    98540.745    19.730212    19.431896    23.156914 
    4400   -192227.41   -192939.01    711.60012    155.21918    2408.6509    98540.745    19.721682    19.426183    23.196811 
    4410   -192227.41   -192936.66    709.25474    154.70759    2408.2837    98540.745    19.713151    19.420469    23.236708 
    4420   -192227.41   -192938.45    711.04591    155.09829    2418.0049    98540.745    19.704621    19.414756    23.276605 
    4430   -192227.42   -192943.21    715.79799    156.13484    2437.3093    98540.745    19.696091    19.409042    23.316502 
    4440   -192227.43   -192946.54     719.1146    156.85829    2463.0732    98540.745     19.68756    19.403329    23.356399 
    4450   -192227.44   -192943.13    715.69271    156.11188    2508.2031    98540.745     19.67903    19.397615    23.396296 
    4460   -192227.44   -192942.99    715.54987    156.08072    2512.5857    98540.745      19.6705    19.391902    23.436193 
    4470   -192227.44   -192948.58     721.1476    157.30174    2485.2656    98540.745    19.661969    19.386188     23.47609 
    4480   -192227.42   -192950.28    722.85986    157.67523    2471.1232    98540.745    19.653439    19.380475    23.515987 
    4490   -192227.42   -192949.13    721.71209    157.42487    2461.3393    98540.745    19.644909    19.374761    23.555884 
    4500   -192227.41   -192948.64    721.22814    157.31931    2460.0273    98540.745    19.636378    19.369048    23.595781 
    4510   -192227.42   -192950.93    723.51364    157.81784    2468.3649    98540.745    19.627848    19.363334    23.635678 
    4520   -192227.43   -192955.21    727.78511    158.74956    2484.5996    98540.745    19.619318    19.357621    23.675575 
    4530   -192227.44   -192959.12    731.68105    159.59937    2504.8506    98540.745    19.610787    19.351907    23.715472 
    4540   -192227.45   -192961.04    733.58608    160.01491    2523.8612    98540.745    19.602257    19.346194    23.755369 
    4550   -192227.46   -192962.13    734.67718    160.25291    2535.6067    98540.745    19.593727     19.34048    23.795266 
    4560   -192227.45   -192965.65    738.19849      161.021    2533.2393    98540.745    19.585196    19.334766    23.835163 
    4570   -192227.44   -192970.83    743.39229    162.15391    2519.2342    98540.745    19.576666    19.329053     23.87506 
    4580   -192227.42   -192973.71    746.28803    162.78555    2502.1311    98540.745    19.568136    19.323339    23.914957 
    4590   -192227.41   -192973.97    746.56199     162.8453    2488.5413    98540.745    19.559605    19.317626    23.954854 
    4600    -192227.4   -192974.84    747.43683    163.03613    2483.9786    98540.745    19.551075    19.311912    23.994751 
    4608    -192227.4   -192977.56    750.15998    163.63012    2488.4365    98540.745    19.544251    19.307342    24.026669 
Loop time of 686.271 on 1 procs for 4000 steps with 1539 atoms

Performance: 0.050 ns/day, 476.577 hours/ns, 5.829 timesteps/s
99.7% CPU use with 1 MPI tasks x no OpenMP threads

MPI task timing breakdown:
Section |  min time  |  avg time  |  max time  |%varavg| %total
---------------------------------------------------------------
Pair    | 632.49     | 632.49     | 632.49     |   0.0 | 92.16
Bond    | 0.0023649  | 0.0023649  | 0.0023649  |   0.0 |  0.00
Neigh   | 1.0408     | 1.0408     | 1.0408     |   0.0 |  0.15
Comm    | 0.20966    | 0.20966    | 0.20966    |   0.0 |  0.03
Output  | 0.25264    | 0.25264    | 0.25264    |   0.0 |  0.04
Modify  | 52.24      | 52.24      | 52.24      |   0.0 |  7.61
Other   |            | 0.0315     |            |       |  0.00

Nlocal:    1539 ave 1539 max 1539 min
Histogram: 1 0 0 0 0 0 0 0 0 0
Nghost:    5964 ave 5964 max 5964 min
Histogram: 1 0 0 0 0 0 0 0 0 0
Neighs:    310743 ave 310743 max 310743 min
Histogram: 1 0 0 0 0 0 0 0 0 0

Total # of neighbors = 310743
Ave neighs/atom = 201.912
Ave special neighs/atom = 0
Neighbor list builds = 40
Dangerous builds not checked

#Exit the simulation
unfix		qeq
unfix		dyn
unfix		frags
unfix		bonds
clear



Please see the log.cite file for references relevant to this simulation

Total wall time: 0:13:36
