
#Set velocity (in km/s)
variable v equal 7

#Controls angle of impact
#a = angle from horizontal/10
variable        a equal 9

#Loop through the simulation several times with different random seeds
variable        b equal 1
label           loopb
variable        seed equal 240323*$b
variable        seed equal 240323*1

#Set up impact simulation
print		"<<<<<<<<< Vel=$v, Angle=$a, Test=$b >>>>>>>>>>>"
<<<<<<<<< Vel=7, Angle=9, Test=1 >>>>>>>>>>>
units	        real
newton	     	on
atom_style full

#Periodic boundary conditions
boundary        p p p

#Read the data file
read_data       data.${sname}
read_data       data.pth2o
  triclinic box = (0 0 0) to (44.3939 44.3939 50) with tilt (0 0 0)
  1 by 1 by 1 MPI processor grid
  reading atoms ...
  1539 atoms
  0 = max # of 1-2 neighbors
  0 = max # of 1-3 neighbors
  0 = max # of 1-4 neighbors
  1 = max # of special neighbors

#Obtain the REAX pair coefficients from the ffield file
pair_style      reax/c NULL safezone 5.0 mincap 1200
pair_coeff  	* * ffield.reax Pt O H

#Apply qeq charge equilibration
fix 		qeq all qeq/reax 1 0.0 10.0 1.0e-6 reax/c

#Details of how lammps computes neighboring atoms for pairwise interactions
neighbor        2.5  bin
neigh_modify    delay 10 every 2 check yes one 15000 page 150000

#group impacting H2O by atom ids
group impactor id 1537:1539
3 atoms in group impactor

#Print thermodynamic data every 10 steps
thermo          10

#Randomize initial position and set far to equilibrate
displace_atoms 	impactor move 20.0 20.0 0.0 units box

#Compute the center of mass of the impactor
compute         cmi impactor com
variable        xd equal c_cmi[1]
variable        yd equal c_cmi[2]
variable        zd equal c_cmi[3]
variable        ranangle equal random(0,90,${seed})
variable        ranangle equal random(0,90,240323)
thermo_style    custom step etotal pe ke temp press vol c_cmi[1] c_cmi[2] c_cmi[3]

#Rotate the impactor before beginning simulation
print ">>>>>> Rotated impactor by ${ranangle} <<<<<<<"
>>>>>> Rotated impactor by 38.1471168994904 <<<<<<<
run 0
Neighbor list info ...
  update every 2 steps, delay 10 steps, check yes
  max neighbors/atom: 15000, page size: 150000
  master list distance cutoff = 12.5
  ghost atom cutoff = 12.5
  binsize = 6.25, bins = 8 8 8
  2 neighbor lists, perpetual/occasional/extra = 2 0 0
  (1) pair reax/c, perpetual
      attributes: half, newton off, ghost
      pair build: half/bin/newtoff/ghost
      stencil: half/ghost/bin/3d/newtoff
      bin: standard
  (2) fix qeq/reax, perpetual, copy from (1)
      attributes: half, newton off, ghost
      pair build: copy
      stencil: none
      bin: none
Per MPI rank memory allocation (min/avg/max) = 655.1 | 655.1 | 655.1 Mbytes
Step TotEng PotEng KinEng Temp Press Volume c_cmi[1] c_cmi[2] c_cmi[3] 
       0   -174930.33   -174930.33            0            0   -10163.895    98540.745    22.227217    20.053875    32.690199 
Loop time of 1.90735e-06 on 1 procs for 0 steps with 1539 atoms

262.1% CPU use with 1 MPI tasks x no OpenMP threads

MPI task timing breakdown:
Section |  min time  |  avg time  |  max time  |%varavg| %total
---------------------------------------------------------------
Pair    | 0          | 0          | 0          |   0.0 |  0.00
Bond    | 0          | 0          | 0          |   0.0 |  0.00
Neigh   | 0          | 0          | 0          |   0.0 |  0.00
Comm    | 0          | 0          | 0          |   0.0 |  0.00
Output  | 0          | 0          | 0          |   0.0 |  0.00
Modify  | 0          | 0          | 0          |   0.0 |  0.00
Other   |            | 1.907e-06  |            |       |100.00

Nlocal:    1539 ave 1539 max 1539 min
Histogram: 1 0 0 0 0 0 0 0 0 0
Nghost:    5964 ave 5964 max 5964 min
Histogram: 1 0 0 0 0 0 0 0 0 0
Neighs:    291267 ave 291267 max 291267 min
Histogram: 1 0 0 0 0 0 0 0 0 0

Total # of neighbors = 291267
Ave neighs/atom = 189.257
Ave special neighs/atom = 0
Neighbor list builds = 0
Dangerous builds = 0
displace_atoms  impactor rotate ${xd} ${yd} ${zd} 0.0 0.0 1.0 ${ranangle}
displace_atoms  impactor rotate 22.22721660746 ${yd} ${zd} 0.0 0.0 1.0 ${ranangle}
displace_atoms  impactor rotate 22.22721660746 20.053874955595 ${zd} 0.0 0.0 1.0 ${ranangle}
displace_atoms  impactor rotate 22.22721660746 20.053874955595 32.6901990754796 0.0 0.0 1.0 ${ranangle}
displace_atoms  impactor rotate 22.22721660746 20.053874955595 32.6901990754796 0.0 0.0 1.0 6.82583034038544
displace_atoms  impactor rotate ${xd} ${yd} ${zd} 0.0 1.0 0.0 ${ranangle}
displace_atoms  impactor rotate 22.22721660746 ${yd} ${zd} 0.0 1.0 0.0 ${ranangle}
displace_atoms  impactor rotate 22.22721660746 20.053874955595 ${zd} 0.0 1.0 0.0 ${ranangle}
displace_atoms  impactor rotate 22.22721660746 20.053874955595 32.6901990754796 0.0 1.0 0.0 ${ranangle}
displace_atoms  impactor rotate 22.22721660746 20.053874955595 32.6901990754796 0.0 1.0 0.0 4.71330642700195
displace_atoms  impactor rotate ${xd} ${yd} ${zd} 1.0 0.0 0.0 ${ranangle}
displace_atoms  impactor rotate 22.22721660746 ${yd} ${zd} 1.0 0.0 0.0 ${ranangle}
displace_atoms  impactor rotate 22.22721660746 20.053874955595 ${zd} 1.0 0.0 0.0 ${ranangle}
displace_atoms  impactor rotate 22.22721660746 20.053874955595 32.6901990754796 1.0 0.0 0.0 ${ranangle}
displace_atoms  impactor rotate 22.22721660746 20.053874955595 32.6901990754796 1.0 0.0 0.0 0.0323742628097534

#Simulation timestep
timestep  	0.1

#Print data to lammptrj file
dump            1 all custom ${dumpstep}  ${sname}.$v.lammpstrj id type x y z vx vy vz
dump            1 all custom 100  ${sname}.$v.lammpstrj id type x y z vx vy vz
dump            1 all custom 100  pth2o.$v.lammpstrj id type x y z vx vy vz
dump            1 all custom 100  pth2o.7.lammpstrj id type x y z vx vy vz
dump_modify     1 sort id

#First, minimize structure
min_style       cg
minimize        0.0 1e-6 ${minsteps} 5000
minimize        0.0 1e-6 2000 5000
WARNING: Using 'neigh_modify every 1 delay 0 check yes' setting during minimization (../min.cpp:168)
Per MPI rank memory allocation (min/avg/max) = 657.7 | 657.7 | 657.7 Mbytes
Step TotEng PotEng KinEng Temp Press Volume c_cmi[1] c_cmi[2] c_cmi[3] 
       0   -174930.33   -174930.33            0            0   -10163.895    98540.745    22.227217    20.053875    32.690199 
      10   -181625.68   -181625.68            0            0   -13832.626    98540.745     21.97259    20.156811    32.525824 
      20   -186689.16   -186689.16            0            0    -12641.63    98540.745    21.972412    20.156883    32.525707 
      30   -190196.96   -190196.96            0            0   -9718.5205    98540.745    21.972287    20.156934    32.525626 
      40   -192804.98   -192804.98            0            0    -4428.254    98540.745     21.97235    20.156908    32.525667 
      50   -193626.99   -193626.99            0            0    2523.2199    98540.745    21.972097     20.15701    32.525504 
      60   -193634.19   -193634.19            0            0    2160.4411    98540.745    21.972361    20.156903    32.525675 
      70    -193634.2    -193634.2            0            0    2167.1891    98540.745    21.972466    20.156861    32.525742 
      74    -193634.2    -193634.2            0            0    2166.0932    98540.745    21.972465    20.156861    32.525742 
Loop time of 29.0918 on 1 procs for 74 steps with 1539 atoms

99.3% CPU use with 1 MPI tasks x no OpenMP threads

Minimization stats:
  Stopping criterion = linesearch alpha is zero
  Energy initial, next-to-last, final = 
        -174930.331687     -193634.198347     -193634.198321
  Force two-norm initial, final = 658.218 0.0139891
  Force max component initial, final = 130.267 0.00665489
  Final line search alpha, max atom move = 6.10352e-05 4.06182e-07
  Iterations, force evaluations = 74 167

MPI task timing breakdown:
Section |  min time  |  avg time  |  max time  |%varavg| %total
---------------------------------------------------------------
Pair    | 26.629     | 26.629     | 26.629     |   0.0 | 91.53
Bond    | 8.1301e-05 | 8.1301e-05 | 8.1301e-05 |   0.0 |  0.00
Neigh   | 0.026038   | 0.026038   | 0.026038   |   0.0 |  0.09
Comm    | 0.0090892  | 0.0090892  | 0.0090892  |   0.0 |  0.03
Output  | 0.0014319  | 0.0014319  | 0.0014319  |   0.0 |  0.00
Modify  | 2.4113     | 2.4113     | 2.4113     |   0.0 |  8.29
Other   |            | 0.01483    |            |       |  0.05

Nlocal:    1539 ave 1539 max 1539 min
Histogram: 1 0 0 0 0 0 0 0 0 0
Nghost:    5964 ave 5964 max 5964 min
Histogram: 1 0 0 0 0 0 0 0 0 0
Neighs:    305064 ave 305064 max 305064 min
Histogram: 1 0 0 0 0 0 0 0 0 0

Total # of neighbors = 305064
Ave neighs/atom = 198.222
Ave special neighs/atom = 0
Neighbor list builds = 1
Dangerous builds = 0

#Then, run equilibration
velocity 	all create 100.0 4928459 rot yes dist gaussian #generates initial velocities at 100 K  via a gaussian distribution
fix 		equil all nvt temp 100.0 100.0 50.0 #nvt dynamics on all atoms at starting and ending temps of 100 K w 50 fs damping
run 		${eqsteps}
run 		500
Per MPI rank memory allocation (min/avg/max) = 657.8 | 657.8 | 657.8 Mbytes
Step TotEng PotEng KinEng Temp Press Volume c_cmi[1] c_cmi[2] c_cmi[3] 
      74   -193175.75    -193634.2    458.44859          100    2378.7624    98540.745    21.972465    20.156861    32.525742 
      80   -193175.75   -193634.05     458.2963    99.966783    2376.8158    98540.745    21.972292    20.158703    32.525359 
      90   -193175.75   -193633.14    457.38824    99.768711    2375.2093    98540.745    21.972005    20.161773     32.52472 
     100   -193175.75   -193631.47    455.72403    99.405701    2376.0468    98540.745    21.971717    20.164843    32.524082 
     110   -193175.74    -193629.1    453.35278    98.888467    2379.3898    98540.745    21.971429    20.167913    32.523444 
     120   -193175.74   -193626.01    450.27697    98.217551    2384.9901    98540.745    21.971141    20.170983    32.522806 
     130   -193175.72   -193622.21    446.48199    97.389762     2392.331    98540.745    21.970853    20.174053    32.522167 
     140    -193175.7   -193617.69    441.98672    96.409222    2400.6457    98540.745    21.970566    20.177123    32.521529 
     150   -193175.67   -193612.52    436.85724    95.290345    2409.1323    98540.745    21.970278    20.180193    32.520891 
     160   -193175.61   -193606.77    431.15693    94.046953    2417.3119    98540.745     21.96999    20.183263    32.520253 
     170   -193175.54   -193600.44    424.89443    92.680934    2425.3026    98540.745    21.969702    20.186333    32.519614 
     180   -193175.45   -193593.49    418.04598    91.187103    2433.7245    98540.745    21.969414    20.189404    32.518976 
     190   -193175.32   -193585.94    410.61869     89.56701    2443.3401    98540.745    21.969126    20.192475    32.518337 
     200   -193175.17   -193577.83    402.66672    87.832471    2454.7326    98540.745    21.968838    20.195547    32.517699 
     210   -193174.97   -193569.22    394.24966    85.996482    2468.1683    98540.745     21.96855    20.198619     32.51706 
     220   -193174.74   -193560.13    385.39171    84.064324    2483.5747    98540.745    21.968262    20.201692    32.516421 
     230   -193174.47   -193550.56    376.09045    82.035469    2500.4816    98540.745    21.967974    20.204767    32.515782 
     240   -193174.14   -193540.51    366.37323    79.915882    2518.0172    98540.745    21.967686    20.207842    32.515143 
     250   -193173.77    -193530.1    356.33548    77.726377    2535.1296    98540.745    21.967397    20.210919    32.514503 
     260   -193173.34   -193519.43    346.09303    75.492224    2551.0987    98540.745    21.967109    20.213997    32.513863 
     270   -193172.85   -193508.55    335.69894    73.224991    2565.9433    98540.745     21.96682    20.217078    32.513223 
     280   -193172.31   -193497.46    325.14667    70.923257    2580.3273    98540.745    21.966531    20.220161    32.512582 
     290   -193171.71   -193486.16    314.45031    68.590093     2595.107    98540.745    21.966242    20.223247     32.51194 
     300   -193171.06   -193474.75    303.68314    66.241482    2610.8992    98540.745    21.965952    20.226336    32.511298 
     310   -193170.36    -193463.3    292.93914    63.897927    2628.0117    98540.745    21.965662    20.229428    32.510655 
     320   -193169.62   -193451.89    282.27432    61.571642    2646.5339    98540.745    21.965372    20.232524    32.510011 
     330   -193168.83   -193440.51     271.6791    59.260538    2666.3376    98540.745    21.965081    20.235624    32.509367 
     340   -193168.02   -193429.13    261.10701     56.95448    2686.9127    98540.745     21.96479    20.238729    32.508721 
     350   -193167.19   -193417.74    250.55474    54.652745    2707.1973    98540.745    21.964499    20.241838    32.508075 
     360   -193166.34   -193406.46      240.113    52.375122    2725.8264    98540.745    21.964207    20.244953    32.507427 
     370   -193165.51    -193395.4    229.89017    50.145247    2741.8847    98540.745    21.963914    20.248074    32.506779 
     380   -193164.68   -193384.58    219.89734     47.96554    2755.5195    98540.745    21.963621      20.2512    32.506129 
     390   -193163.88   -193373.96    210.08113    45.824361    2767.7626    98540.745    21.963327    20.254332    32.505477 
     400   -193163.11   -193363.56    200.44924    43.723384    2779.7808    98540.745    21.963033    20.257469    32.504825 
     410   -193162.38   -193353.48     191.0984    41.683714     2792.275    98540.745    21.962739    20.260613    32.504172 
     420    -193161.7   -193343.84    182.14037    39.729727    2805.4547    98540.745    21.962443    20.263762    32.503517 
     430   -193161.05   -193334.68    173.63436    37.874336    2819.2571    98540.745    21.962148    20.266917    32.502861 
     440   -193160.43   -193326.01    165.57505    36.116384    2833.4446    98540.745    21.961851    20.270078    32.502204 
     450   -193159.85   -193317.78     157.9321    34.449251    2847.5196    98540.745    21.961554    20.273245    32.501545 
     460   -193159.29   -193310.01    150.71587    32.875196    2860.5826    98540.745    21.961257    20.276417    32.500886 
     470   -193158.75   -193302.75    144.00379     31.41111    2871.5511    98540.745    21.960959    20.279595    32.500225 
     480   -193158.22    -193296.1    137.87061    30.073297    2879.6985    98540.745     21.96066    20.282779    32.499563 
     490   -193157.71   -193290.01      132.303    28.858852    2885.1624    98540.745    21.960361    20.285969      32.4989 
     500    -193157.2   -193284.43    127.23406    27.753179    2888.8294    98540.745    21.960062    20.289166    32.498236 
     510   -193156.69   -193279.33    122.64674    26.752561    2891.7764    98540.745    21.959762    20.292368     32.49757 
     520   -193156.18   -193274.77    118.59712    25.869231    2894.7441    98540.745    21.959461    20.295577    32.496902 
     530   -193155.67   -193270.82    115.15005    25.117331     2898.016    98540.745    21.959159    20.298794    32.496234 
     540   -193155.15   -193267.48    112.32244    24.500553    2901.5109    98540.745    21.958857    20.302017    32.495564 
     550   -193154.63   -193264.72    110.08691    24.012923    2904.8589    98540.745    21.958554    20.305248    32.494892 
     560   -193154.11   -193262.53    108.42216    23.649796    2907.3918    98540.745    21.958251    20.308486    32.494219 
     570   -193153.58   -193260.93    107.35477     23.41697    2908.2631    98540.745    21.957946    20.311732    32.493544 
     574   -193153.36   -193260.47    107.10706    23.362938     2907.982    98540.745    21.957824    20.313033    32.493273 
Loop time of 86.5005 on 1 procs for 500 steps with 1539 atoms

Performance: 0.050 ns/day, 480.558 hours/ns, 5.780 timesteps/s
99.6% CPU use with 1 MPI tasks x no OpenMP threads

MPI task timing breakdown:
Section |  min time  |  avg time  |  max time  |%varavg| %total
---------------------------------------------------------------
Pair    | 80.325     | 80.325     | 80.325     |   0.0 | 92.86
Bond    | 0.00022483 | 0.00022483 | 0.00022483 |   0.0 |  0.00
Neigh   | 0          | 0          | 0          |   0.0 |  0.00
Comm    | 0.025764   | 0.025764   | 0.025764   |   0.0 |  0.03
Output  | 0.065425   | 0.065425   | 0.065425   |   0.0 |  0.08
Modify  | 6.0779     | 6.0779     | 6.0779     |   0.0 |  7.03
Other   |            | 0.005799   |            |       |  0.01

Nlocal:    1539 ave 1539 max 1539 min
Histogram: 1 0 0 0 0 0 0 0 0 0
Nghost:    5964 ave 5964 max 5964 min
Histogram: 1 0 0 0 0 0 0 0 0 0
Neighs:    311995 ave 311995 max 311995 min
Histogram: 1 0 0 0 0 0 0 0 0 0

Total # of neighbors = 311995
Ave neighs/atom = 202.726
Ave special neighs/atom = 0
Neighbor list builds = 0
Dangerous builds = 0
unfix 		equil

#Bring the impactor close to the surface
displace_atoms  impactor move 0.0 0.0 -15.0 units box

#Give the impactor a velocity toward the surface
variable 	impv equal $v*-0.01
variable 	impv equal 7*-0.01
variable 	ang equal PI*$a*10/180.0
variable 	ang equal PI*9*10/180.0
variable 	vy equal ${impv}*cos(${ang})
variable 	vy equal -0.07*cos(${ang})
variable 	vy equal -0.07*cos(1.5707963267949)
variable 	vz equal ${impv}*sin(${ang})
variable 	vz equal -0.07*sin(${ang})
variable 	vz equal -0.07*sin(1.5707963267949)
velocity 	impactor set NULL ${vy} ${vz} sum yes units box
velocity 	impactor set NULL 2.44403693719019e-16 ${vz} sum yes units box
velocity 	impactor set NULL 2.44403693719019e-16 -0.07 sum yes units box

#Guess the number of steps that will be needed
variable impsteps equal ceil(-20/${vz}*10)
variable impsteps equal ceil(-20/-0.07*10)

#Run the impact simulation
fix  		dyn all nve
fix 		frags all reax/c/species 10 10 100 species.$b.$a.out element Pt H O cutoff 2 2 .88 cutoff 3 3 .88 cutoff 2 3 .88
fix 		frags all reax/c/species 10 10 100 species.1.$a.out element Pt H O cutoff 2 2 .88 cutoff 3 3 .88 cutoff 2 3 .88
fix 		frags all reax/c/species 10 10 100 species.1.9.out element Pt H O cutoff 2 2 .88 cutoff 3 3 .88 cutoff 2 3 .88
WARNING: Resetting reneighboring criteria for fix reax/c/species (../fix_reaxc_species.cpp:103)
fix  		bonds all reax/c/bonds 100 bonds.reaxc.$b.$a.${sname}
fix  		bonds all reax/c/bonds 100 bonds.reaxc.1.$a.${sname}
fix  		bonds all reax/c/bonds 100 bonds.reaxc.1.9.${sname}
fix  		bonds all reax/c/bonds 100 bonds.reaxc.1.9.pth2o
run 		${impsteps}
run 		2858
Per MPI rank memory allocation (min/avg/max) = 668.8 | 668.8 | 668.8 Mbytes
Step TotEng PotEng KinEng Temp Press Volume c_cmi[1] c_cmi[2] c_cmi[3] 
     574   -193045.93   -193260.57    214.64113     46.81902    2957.6406    98540.745    21.957824    20.313033    17.493273 
     580   -193045.93   -193260.08      214.147    46.711235    2956.3098    98540.745    21.957641    20.314985    17.450867 
     590   -193045.93   -193259.76    213.83105    46.642319    2952.1757    98540.745    21.957336    20.318239    17.380187 
     600   -193045.93   -193260.02    214.08713    46.698176    2946.1788    98540.745    21.957031    20.321493    17.309503 
     610   -193045.93   -193260.78    214.84875    46.864307    2939.2046    98540.745    21.956726    20.324746    17.238814 
     620   -193045.93   -193262.03    216.09914    47.137049    2932.0599    98540.745    21.956421    20.327999    17.168122 
     630   -193045.93   -193263.77    217.84817    47.518561    2925.2597    98540.745    21.956116    20.331253    17.097425 
     640   -193045.93   -193266.01    220.07853    48.005063     2919.016    98540.745    21.955811    20.334506    17.026723 
     650   -193045.93   -193268.65    222.72378    48.582064     2913.214    98540.745    21.955506     20.33776    16.956016 
     660   -193045.93   -193271.64     225.7062    49.232608    2907.3132    98540.745    21.955201    20.341013    16.885303 
     670   -193045.93   -193274.93    229.00473    49.952107    2900.3942    98540.745    21.954896    20.344266    16.814585 
     680   -193045.93    -193278.6    232.66564     50.75065    2891.5047    98540.745    21.954591    20.347519    16.743861 
     690   -193045.93   -193282.65     236.7172    51.634405    2880.2758    98540.745    21.954286    20.350772     16.67313 
     700   -193045.93   -193287.03    241.10193    52.590833    2867.1935    98540.745    21.953981    20.354025    16.602392 
     710   -193045.93   -193291.66    245.72977     53.60029    2853.2989    98540.745    21.953676    20.357278    16.531647 
     720   -193045.93   -193296.49    250.56388     54.65474    2839.5956    98540.745     21.95337    20.360531    16.460893 
     730   -193045.93   -193301.55    255.62213     55.75808    2826.7388    98540.745    21.953065    20.363784    16.390131 
     740   -193045.93   -193306.84    260.91557    56.912721    2815.0436    98540.745     21.95276    20.367036    16.319359 
     750   -193045.93   -193312.33    266.39825    58.108643    2804.6097    98540.745    21.952455    20.370289    16.248577 
     760   -193045.93    -193317.9    271.96657    59.323243    2795.2777    98540.745     21.95215    20.373541    16.177783 
     770   -193045.93   -193323.45    277.51659    60.533853    2786.4304    98540.745    21.951845    20.376794    16.106977 
     780   -193045.93   -193328.95     283.0215    61.734622    2776.9984    98540.745     21.95154    20.380046    16.036158 
     790   -193045.93   -193334.46    288.52816    62.935772    2765.9118    98540.745    21.951235    20.383298    15.965323 
     800   -193045.93   -193339.98    294.04727    64.139639    2752.8393    98540.745     21.95093     20.38655    15.894473 
     810   -193045.93   -193345.42    299.49458    65.327844    2738.4796    98540.745    21.950624    20.389802    15.823604 
     820   -193045.93   -193350.71    304.78066     66.48088    2724.0854    98540.745    21.950319    20.393053    15.752717 
     830   -193045.93   -193355.83    309.90129    67.597829     2710.747    98540.745    21.950014    20.396305    15.681808 
     840   -193045.93   -193360.84    314.90932    68.690214    2699.0541    98540.745    21.949709    20.399556    15.610878 
     850   -193045.93   -193365.76    319.83475    69.764585    2689.1897    98540.745    21.949404    20.402807    15.539923 
     860   -193045.93   -193370.57    324.64298    70.813388      2681.09    98540.745    21.949098    20.406058    15.468942 
     870   -193045.93   -193375.18    329.25307    71.818973    2674.4354    98540.745    21.948793    20.409309    15.397935 
     880   -193045.93   -193379.53    333.60066      72.7673    2668.5223    98540.745    21.948488     20.41256    15.326898 
     890   -193045.93   -193383.62     337.6921    73.659755    2662.3487    98540.745    21.948182     20.41581     15.25583 
     900   -193045.93   -193387.51    341.57313     74.50631    2655.0489    98540.745    21.947877    20.419061     15.18473 
     910   -193045.93   -193391.17    345.23351    75.304739    2646.4821    98540.745    21.947571    20.422311    15.113596 
     920   -193045.93   -193394.52    348.59011    76.036903    2637.3407    98540.745    21.947266    20.425562    15.042427 
     930   -193045.93   -193397.52    351.58924    76.691095    2628.4738    98540.745    21.946961    20.428812    14.971218 
     940   -193045.93   -193400.18    354.24783    77.271005    2620.9984    98540.745    21.946658     20.43206    14.899964 
     950   -193045.93   -193402.57    356.64331    77.793524    2615.5397    98540.745    21.946356    20.435307    14.828658 
     960   -193045.93   -193404.73    358.80449    78.264935    2612.0513    98540.745    21.946055    20.438549    14.757292 
     970   -193045.93   -193406.66    360.73004    78.684949    2610.0786    98540.745    21.945754    20.441786    14.685855 
     980   -193045.93   -193408.33    362.40379    79.050039    2609.2492    98540.745    21.945451    20.445013    14.614331 
     990   -193045.93   -193409.77    363.84008    79.363333    2608.8601    98540.745    21.945147    20.448228      14.5427 
    1000   -193045.93   -193411.07    365.13646     79.64611    2607.5557    98540.745    21.944841    20.451424    14.470938 
    1010   -193045.93    -193412.3    366.36979    79.915131    2605.2966    98540.745    21.944534    20.454597     14.39901 
    1020   -193045.93   -193413.49    367.55881    80.174489    2601.8075    98540.745    21.944226    20.457738    14.326878 
    1030   -193045.93   -193414.61     368.6854    80.420228    2598.8395    98540.745    21.943912    20.460842    14.254485 
    1040   -193045.93   -193415.71    369.78568    80.660229    2596.8134    98540.745    21.943591    20.463897    14.181767 
    1050   -193045.92   -193416.88    370.95768    80.915874    2596.8977    98540.745    21.943264     20.46689    14.108645 
    1060   -193045.92   -193418.25    372.33057    81.215338    2599.1301    98540.745    21.942926    20.469805    14.035029 
    1070   -193045.92   -193419.97    374.04697    81.589731    2603.3437    98540.745    21.942571    20.472615    13.960806 
    1080   -193045.92   -193422.25    376.32758    82.087193    2608.7162    98540.745    21.942182    20.475282     13.88583 
    1090   -193045.92   -193425.53    379.61601    82.804489     2613.469    98540.745    21.941729     20.47775    13.809903 
    1100   -193045.92   -193430.55    384.63653    83.899599    2616.5625    98540.745     21.94117    20.479934    13.732759 
    1110   -193045.92   -193437.76      391.839    85.470652    2618.5235    98540.745    21.940484    20.481728    13.654093 
    1120   -193045.92   -193445.89    399.96981    87.244202     2623.221    98540.745    21.939765     20.48305    13.573696 
    1130   -193045.95   -193450.79    404.83946    88.306405    2679.1076    98540.745    21.939306    20.483915    13.491684 
    1140   -193045.92   -193443.47    397.54729    86.715786    2701.4288    98540.745    21.939437     20.48441    13.409276 
    1150   -193045.92   -193434.26    388.34435    84.708376     2720.455    98540.745    21.940438    20.484707    13.327605 
    1160   -193045.92    -193426.2    380.27278    82.947749    2720.1762    98540.745    21.942483     20.48498    13.247342 
    1170   -193045.92   -193422.85    376.93002    82.218601    2710.7893    98540.745    21.945469    20.485328    13.168914 
    1180   -193045.92   -193427.23    381.30433    83.172757    2719.9041    98540.745    21.948907    20.485754    13.092441 
    1190   -193045.96   -193435.81    389.84952    85.036693    2778.3228    98540.745     21.95213    20.486179    13.017864 
    1200   -193045.93   -193440.01    394.08502    85.960571     2781.077    98540.745    21.954664    20.486495    12.945682 
    1210   -193045.93   -193445.75    399.81972    87.211462     2774.356    98540.745    21.956407    20.486662    12.876023 
    1220   -193045.98   -193451.46    405.48305    88.446788     2743.091    98540.745    21.957602    20.486579    12.808621 
    1230   -193045.87   -193443.07    397.19988    86.640006    2722.1959    98540.745    21.958709    20.486097    12.742642 
    1240   -193045.86   -193431.97    386.11003     84.22101    2740.7162    98540.745     21.96028    20.485053    12.677188 
    1250   -193045.86   -193416.27    370.40538    80.795402    2763.9176    98540.745    21.962789    20.483171    12.612532 
    1260   -193045.88   -193396.87    350.99632    76.561763     2829.224    98540.745    21.966737    20.479704    12.550125 
    1270   -193045.87   -193379.84    333.97038    72.847946    2896.9644    98540.745    21.972468    20.472566    12.493797 
    1280   -193045.86   -193371.59    325.73298    71.051146    2907.7705    98540.745    21.979574    20.459948     12.44651 
    1290   -193045.85   -193369.76    323.91634     70.65489    2884.1801    98540.745    21.988593    20.441556    12.408385 
    1300   -193045.84   -193371.83    325.99291    71.107846    2858.4683    98540.745    22.000739    20.417763    12.378349 
    1310   -193045.87   -193378.41    332.53862    72.535642    2839.7397    98540.745    22.016809    20.388912    12.355366 
    1320   -193045.83    -193382.8    336.97604    73.503562    2757.3405    98540.745    22.036702    20.355453    12.338161 
    1330   -193045.83   -193388.31    342.48318    74.704817    2669.8888    98540.745    22.058982     20.31855     12.32469 
    1340    -193045.9   -193395.77    349.87116    76.316335    2634.7554    98540.745    22.082302     20.28043    12.312582 
    1350    -193045.9   -193407.66    361.76131    78.909898    2638.2552    98540.745    22.106137    20.242461    12.300489 
    1360   -193045.91   -193420.36    374.45265     81.67822    2670.8769    98540.745    22.129698    20.204906    12.288047 
    1370   -193045.88   -193427.36    381.48145    83.211393    2730.1105    98540.745    22.151929    20.167387    12.275458 
    1380    -193045.9   -193424.26    378.35821    82.530129    2745.9006    98540.745    22.172468     20.12965    12.263543 
    1390    -193045.9   -193416.21    370.30437     80.77337    2789.9987    98540.745    22.191221    20.091157    12.253067 
    1400   -193045.91   -193406.69    360.78173    78.696225    2844.3949    98540.745    22.207545    20.050945      12.2454 
    1410   -193045.92   -193399.47    353.54854    77.118471    2879.0979    98540.745     22.22008    20.008707    12.242434 
    1420   -193045.91   -193395.29    349.37884    76.208948    2855.0648    98540.745    22.227939    19.966616    12.245371 
    1430   -193045.91   -193398.11    352.20192    76.824738    2804.4784    98540.745    22.232145    19.926854    12.253546 
    1440   -193045.93   -193405.75    359.82182    78.486842    2774.7672    98540.745    22.234464    19.889125    12.265593 
    1450   -193045.93   -193412.87    366.94579    80.040773    2759.8807    98540.745    22.235924    19.852349    12.280773 
    1460   -193045.93   -193414.91    368.98192    80.484907    2749.7961    98540.745    22.236906    19.815398    12.298866 
    1470   -193045.94   -193409.87    363.92584     79.38204    2738.4507    98540.745    22.237547    19.777024    12.319946 
    1480   -193045.93    -193403.6    357.66857    78.017161     2688.049    98540.745    22.237952     19.73601     12.34424 
    1490   -193045.92   -193401.37    355.45019    77.533272    2673.8692    98540.745    22.238242    19.691723    12.371287 
    1500   -193045.93   -193409.28    363.35124    79.256705      2656.55    98540.745    22.238589    19.644532    12.400408 
    1510   -193045.92   -193414.84    368.91722    80.470795    2635.6071    98540.745    22.239168    19.595495    12.430835 
    1520   -193045.92   -193414.03    368.11047    80.294822    2617.4897    98540.745     22.24008    19.545757     12.46166 
    1530   -193045.92   -193409.93     364.0133    79.401118    2608.0467    98540.745    22.241325    19.496232    12.492154 
    1540   -193045.92    -193405.7    359.77371    78.476349    2611.0638    98540.745    22.242796     19.44755    12.521851 
    1550   -193045.94   -193400.06    354.12629    77.244495    2623.7902    98540.745     22.24432    19.400057     12.55056 
    1560   -193045.95   -193389.26    343.30998    74.885165    2636.7657    98540.745    22.245702     19.35388    12.578326 
    1570   -193045.95    -193378.4    332.45804    72.518064    2641.9996    98540.745     22.24674     19.30904    12.605294 
    1580   -193045.95   -193381.64    335.69466    73.224059    2636.8996    98540.745    22.247269    19.265513     12.63157 
    1590   -193045.95   -193397.46    351.50994    76.673798    2621.9943    98540.745    22.247179    19.223255    12.657135 
    1600   -193045.94   -193409.16    363.22492    79.229151     2600.729    98540.745    22.246419    19.182211    12.681847 
    1610   -193045.92   -193410.68    364.75019    79.561854    2581.9404    98540.745    22.244983    19.142326    12.705576 
    1620   -193045.92   -193407.07    361.15514    78.777675    2573.3588    98540.745    22.242887    19.103547    12.728332 
    1630   -193045.92   -193402.99    357.07973    77.888718    2575.4757    98540.745    22.240185    19.065796    12.750312 
    1640   -193045.92   -193399.07    353.15096    77.031747     2572.347    98540.745    22.236998    19.028955    12.771894 
    1650   -193045.92   -193394.37    348.45186    76.006749    2536.0046    98540.745     22.23382    18.992773    12.793246 
    1660   -193045.91    -193393.1    347.19258    75.732064    2516.0614    98540.745    22.231697    18.956792    12.813868 
    1670   -193045.91    -193400.5    354.58576    77.344716    2513.6803    98540.745    22.231346    18.920649    12.833418 
    1680   -193045.92   -193416.41    370.49008    80.813877    2552.8176    98540.745    22.232751    18.884171    12.851997 
    1690   -193045.93   -193433.58    387.65052    84.557033    2590.1265    98540.745    22.234762    18.847483    12.870649 
    1700   -193045.95   -193445.74    399.79493    87.206056    2619.7383    98540.745    22.235897    18.810778    12.890511 
    1710   -193045.94   -193448.26    402.32396    87.757705    2655.7848    98540.745    22.234776    18.774274    12.912607 
    1720   -193045.94   -193445.25    399.30831     87.09991    2647.4803    98540.745     22.23003    18.738251    12.938165 
    1730   -193045.95   -193445.73     399.7898    87.204937    2616.8424    98540.745    22.221715    18.702612    12.966702 
    1740   -193045.94   -193449.25    403.30308    87.971278    2596.5031    98540.745    22.210926    18.666963    12.996651 
    1750   -193045.93   -193446.07    400.13751    87.280782    2575.7725    98540.745    22.198402    18.631019    13.027269 
    1760   -193045.92   -193435.77    389.85835     85.03862    2585.8473    98540.745    22.184654    18.594633    13.058432 
    1770   -193045.92   -193426.22    380.30526    82.954834    2557.1592    98540.745    22.170175     18.55775    13.090229 
    1780   -193045.92   -193421.12     375.1946    81.840061    2545.5558    98540.745      22.1554    18.520364    13.122051 
    1790   -193045.92   -193419.76    373.83718    81.543971    2541.9223    98540.745    22.140589      18.4826    13.153522 
    1800   -193045.92   -193421.58     375.6561    81.940727    2548.1156    98540.745    22.125776     18.44474    13.184591 
    1810   -193045.93   -193427.27     381.3392    83.180364    2565.4018    98540.745    22.110778    18.407167    13.215595 
    1820   -193045.95   -193435.71    389.75731     85.01658    2596.0986    98540.745     22.09528    18.370254    13.247183 
    1830   -193045.98   -193437.16     391.1838    85.327735    2632.1474    98540.745    22.078888    18.334245    13.280177 
    1840   -193045.99   -193419.29    373.29215    81.425086     2657.543    98540.745    22.061239    18.299238    13.315379 
    1850   -193045.98   -193393.06    347.07445    75.706297    2665.0265    98540.745    22.042134    18.265321    13.353384 
    1860   -193045.99   -193391.52    345.53175    75.369793    2661.3362    98540.745    22.021583    18.232538    13.394426 
    1870   -193045.99   -193407.66    361.66246    78.888337    2648.2228    98540.745    21.999678    18.200701     13.43839 
    1880   -193045.97   -193410.52    364.55197    79.518615    2626.2367    98540.745    21.976444    18.169466    13.484999 
    1890   -193045.95   -193402.76    356.80822    77.829495     2604.598    98540.745    21.951817    18.138502    13.533945 
    1900   -193045.94   -193399.37    353.43132    77.092902    2588.5232    98540.745    21.925818    18.107593    13.584796 
    1910   -193045.94   -193403.28    357.33206    77.943758    2578.9969    98540.745    21.898747    18.076651     13.63686 
    1920   -193045.95   -193407.63    361.68364    78.892955    2580.1082    98540.745    21.871113    18.045673    13.689281 
    1930   -193045.96   -193405.44    359.47774    78.411789    2565.9276    98540.745     21.84339    18.014702    13.741367 
    1940   -193045.95   -193394.37    348.41425    75.998545    2568.9979    98540.745    21.815829     17.98378    13.792234 
    1950   -193045.95   -193386.75     340.7971    74.337039    2570.4756    98540.745    21.788469    17.952945    13.841406 
    1960   -193045.95    -193385.9    339.94553    74.151288    2562.8997    98540.745    21.761275     17.92223    13.888869 
    1970   -193045.94   -193384.19    338.24539    73.780441    2547.2412    98540.745    21.734217     17.89165    13.934643 
    1980   -193045.93   -193377.08    331.14961    72.232661    2528.1812    98540.745    21.707259    17.861202    13.978745 
    1990   -193045.92      -193368    322.07932    70.254185    2511.8418    98540.745    21.680348     17.83086    14.021172 
    2000   -193045.92   -193362.08    316.15931    68.962872    2502.3997    98540.745    21.653417    17.800589    14.061896 
    2010   -193045.92   -193362.01     316.0938    68.948582    2501.5388    98540.745    21.626409    17.770354    14.100865 
    2020   -193045.93   -193367.34    321.41369    70.108994    2509.8849    98540.745    21.599293    17.740142    14.138038 
    2030   -193045.94   -193374.12    328.18555    71.586118    2525.5323    98540.745    21.572071    17.709951    14.173432 
    2040   -193045.95   -193376.04    330.09059    72.001659    2543.0644    98540.745    21.544764     17.67979    14.207168 
    2050   -193045.96   -193371.32    325.36173    70.970169    2555.9318    98540.745    21.517397    17.649679    14.239492 
    2060   -193045.96   -193368.82    322.86012    70.424498     2562.546    98540.745    21.489992    17.619655    14.270776 
    2070   -193045.96   -193373.59    327.62796    71.464493    2562.7575    98540.745    21.462572    17.589794    14.301523 
    2080   -193045.96    -193375.3     329.3404    71.838022    2554.9655    98540.745    21.435181    17.560211    14.332377 
    2090   -193045.94   -193367.53     321.5838    70.146099    2541.8399    98540.745    21.407903    17.531067    14.364104 
    2100   -193045.93   -193357.55    311.62259    67.973292    2527.3945    98540.745    21.380866     17.50254    14.397455 
    2110   -193045.93   -193355.22     309.2944    67.465449    2514.4241    98540.745    21.354218    17.474776    14.432884 
    2120   -193045.93   -193363.21    317.27924    69.207159    2504.4496    98540.745    21.328066    17.447823    14.470301 
    2130   -193045.94    -193376.6    330.66736    72.127468    2499.5843    98540.745    21.302414      17.4216    14.509121 
    2140   -193045.95   -193386.95     340.9993    74.381144     2499.797    98540.745    21.277172    17.395934    14.548554 
    2150   -193045.96   -193386.95    340.99404    74.379996    2500.7871    98540.745    21.252197    17.370625    14.587871 
    2160   -193045.96   -193379.02    333.06481    72.650418    2497.3301    98540.745    21.227335     17.34548    14.626513 
    2170   -193045.96   -193376.38    330.42285    72.074134    2488.0803    98540.745    21.202458    17.320346    14.664105 
    2180   -193045.96    -193382.3     336.3455    73.366023    2472.0598    98540.745    21.177477    17.295123    14.700445 
    2190   -193045.95   -193385.67    339.71989     74.10207    2448.6251    98540.745    21.152355    17.269767    14.735463 
    2200   -193045.93   -193382.32    336.38824    73.375347    2423.2146    98540.745     21.12709    17.244273    14.769157 
    2210   -193045.92   -193378.04    332.11744    72.443771    2403.0068    98540.745    21.101703    17.218654     14.80154 
    2220   -193045.92   -193378.94    333.02037    72.640723    2391.5335    98540.745     21.07622    17.192927    14.832605 
    2230   -193045.92   -193387.35    341.43091    74.475289    2389.1323    98540.745    21.050677    17.167114    14.862307 
    2240   -193045.93   -193401.59    355.66074    77.579199    2393.8076    98540.745    21.025123    17.141243    14.890546 
    2250   -193045.95   -193416.39    370.44383    80.803789    2400.5007    98540.745    20.999634    17.115359    14.917149 
    2260   -193045.96   -193426.52    380.56149    83.010723    2404.1907    98540.745    20.974271    17.089494     14.94192 
    2270   -193045.97   -193433.93    387.96167    84.624903    2407.1742    98540.745    20.948934    17.063546    14.964851 
    2280   -193046.07    -193443.3    397.22538    86.645568    2455.0646    98540.745     20.92319    17.037176    14.986339 
    2290   -193045.97   -193432.22    386.25179    84.251933    2488.6839    98540.745    20.896475    17.009947    15.008261 
    2300   -193045.96   -193416.04    370.08823    80.726224    2473.9971    98540.745    20.868072    16.981264    15.032189 
    2310   -193045.94   -193404.27    358.32485    78.160313    2451.2904    98540.745    20.837253    16.950524    15.058482 
    2320   -193045.94   -193405.56    359.61665    78.442089    2428.2082    98540.745    20.803789    16.917679     15.08705 
    2330   -193045.94   -193415.63    369.68452    80.638164    2412.7731    98540.745    20.768099    16.883393    15.117538 
    2340   -193045.95   -193426.43    380.47932      82.9928    2409.6928    98540.745    20.731042     16.84865    15.149659 
    2350   -193045.96   -193431.63    385.67287    84.125655    2418.3032    98540.745     20.69367    16.814382    15.183353 
    2360   -193045.97   -193427.95    381.97778    83.319655    2431.8358    98540.745    20.657102    16.781408    15.218804 
    2370   -193045.97   -193421.94    375.97254    82.009751    2438.4429    98540.745    20.622291    16.750375    15.256374 
    2380   -193045.97   -193429.19    383.21914     83.59043    2429.0633    98540.745    20.589631    16.721475     15.29636 
    2390   -193045.96   -193452.82    406.86299     88.74779    2416.2662    98540.745    20.558845    16.694304    15.338664 
    2400   -193045.96   -193466.27    420.30383      91.6796    2286.9889    98540.745    20.529299    16.668194    15.382579 
    2410   -193045.95   -193457.42    411.47221    89.753186    2248.5778    98540.745    20.500579    16.642757    15.425908 
    2420   -193045.93   -193440.42    394.48754    86.048371     2221.321    98540.745    20.472102    16.617618    15.467885 
    2430   -193045.92   -193426.27    380.34842    82.964247    2208.0637    98540.745     20.44352    16.592597     15.50822 
    2440   -193045.92   -193420.51    374.59021    81.708227    2204.9902    98540.745    20.414737    16.567691     15.54693 
    2450   -193045.93   -193422.03    376.10604     82.03887    2210.2595    98540.745    20.385769    16.542965    15.584162 
    2460   -193045.94   -193424.92    378.98085    82.665943     2221.652    98540.745    20.356646    16.518465    15.620056 
    2470   -193045.95   -193422.02     376.0646     82.02983    2233.1468    98540.745    20.327387     16.49422    15.654698 
    2480   -193045.95   -193414.31    368.35812     80.34884    2237.2723    98540.745    20.298001    16.470244    15.688132 
    2490   -193045.95    -193413.6    367.64472    80.193228    2232.3746    98540.745    20.268497    16.446545    15.720359 
    2500   -193045.95   -193422.07     376.1212    82.042176    2218.6025    98540.745    20.238889    16.423126    15.751352 
    2510   -193045.94   -193427.87    381.92271    83.307643    2197.2158    98540.745    20.209212    16.399975    15.781084 
    2520   -193045.93   -193426.49    380.55911    83.010205    2175.1961    98540.745    20.179548     16.37706    15.809558 
    2530   -193045.93   -193423.23     377.3048    82.300352    2161.2185    98540.745    20.150046    16.354317    15.836858 
    2540   -193045.93   -193423.13    377.20409    82.278385    2159.0845    98540.745    20.120932    16.331665    15.863197 
    2550   -193045.93   -193427.15    381.21602    83.153494    2170.1305    98540.745     20.09247    16.309019    15.888948 
    2560   -193045.94   -193432.52     386.5822    84.324004    2192.5691    98540.745    20.064909    16.286339    15.914636 
    2570   -193045.96    -193433.9    387.94603    84.621491    2220.0123    98540.745    20.038403    16.263676    15.940845 
    2580   -193045.97   -193427.65     381.6835    83.255465    2242.3838    98540.745    20.012901      16.2412    15.968045 
    2590   -193045.96   -193420.37     374.4051    81.667848    2252.6071    98540.745    19.988051    16.219173    15.996492 
    2600   -193045.97   -193423.48    377.51617    82.346457    2248.9818    98540.745    19.963235    16.197905    16.026227 
    2610   -193045.96    -193433.6    387.64245    84.555273    2229.6125    98540.745    19.937827    16.177717    16.057101 
    2620   -193045.95    -193440.5    394.54919     86.06182     2196.436    98540.745    19.911475    16.158878    16.088715 
    2630   -193045.94   -193441.35    395.41243    86.250114    2223.9655    98540.745    19.884164    16.141409    16.120536 
    2640   -193045.93    -193437.5    391.56363    85.410588    2236.4719    98540.745    19.856127    16.124743    16.153171 
    2650   -193045.93    -193432.1    386.16649    84.233326    2148.4271    98540.745     19.82743    16.108165    16.186778 
    2660   -193045.94    -193425.6    379.66874     82.81599     2161.621    98540.745    19.797784    16.090964    16.219966 
    2670   -193045.95   -193420.27    374.32031    81.649355    2189.4293    98540.745    19.766953    16.072591    16.252911 
    2680   -193045.96   -193413.46    367.50188    80.162071    2213.6391    98540.745      19.7347    16.052918    16.286272 
    2690   -193045.96   -193404.02    358.06063    78.102681    2224.8841    98540.745    19.701023    16.032131     16.32051 
    2700   -193045.96   -193399.42    353.46025    77.099212    2222.2394    98540.745    19.666318    16.010546    16.355731 
    2710   -193045.96    -193403.5    357.53578    77.988195    2208.2487    98540.745    19.631244    15.988461    16.391801 
    2720   -193045.96   -193405.35    359.38958    78.392559    2184.5681    98540.745    19.596464      15.9661    16.428501 
    2730   -193045.94   -193397.97    352.02585    76.786331    2157.3608    98540.745    19.562439    15.943624     16.46557 
    2740   -193045.93   -193386.31    340.38476    74.247096    2135.6552    98540.745    19.529365     15.92113    16.502698 
    2750   -193045.92   -193377.54    331.61262    72.333655    2123.9697    98540.745    19.497183    15.898654    16.539567 
    2760   -193045.92   -193374.88    328.95692    71.754375     2122.215    98540.745    19.465672    15.876193    16.575914 
    2770   -193045.93   -193376.96    331.03351    72.207336    2130.0502    98540.745    19.434563    15.853718    16.611536 
    2780   -193045.94   -193378.25     332.3105    72.485881    2144.1643    98540.745    19.403622    15.831188    16.646276 
    2790   -193045.95   -193372.58    326.62805    71.246387    2157.9158    98540.745    19.372677     15.80856    16.680018 
    2800   -193045.95   -193363.02    317.07088    69.161709    2164.3017    98540.745    19.341617    15.785801    16.712677 
    2810   -193045.95   -193361.96     316.0125    68.930849    2161.6636    98540.745    19.310374    15.762897    16.744194 
    2820   -193045.95   -193369.67    323.71986    70.612032    2149.4249    98540.745      19.2789    15.739858    16.774509 
    2830   -193045.94   -193374.49    328.54773     71.66512    2128.1813    98540.745    19.247155    15.716726    16.803541 
    2840   -193045.93   -193374.14    328.21185    71.591856    2105.0432    98540.745    19.215097    15.693573    16.831185 
    2850   -193045.93   -193374.39     328.4664     71.64738    2090.5993    98540.745    19.182713    15.670449    16.857373 
    2860   -193045.93   -193377.74    331.81207    72.377161    2093.0961    98540.745    19.150095    15.647264    16.882254 
    2870   -193045.94   -193381.11    335.17704    73.111152    2112.6302    98540.745    19.117502    15.623689    16.906321 
    2880   -193045.95   -193378.28    332.33017    72.490172    2144.3728    98540.745    19.085367    15.599146    16.930422 
    2890   -193045.96   -193365.42     319.4597    69.682775    2177.9231    98540.745    19.054315     15.57276    16.955735 
    2900   -193045.96      -193352    306.04171    66.755951    2198.3453    98540.745    19.025057    15.543539    16.983473 
    2910   -193045.96   -193356.69    310.73049    67.778699    2197.1403    98540.745    18.998056    15.510991    17.014177 
    2920   -193045.97   -193380.45    334.47308    72.957598    2177.2241    98540.745    18.973229    15.475648    17.047309 
    2930   -193045.97   -193402.21    356.24428    77.706485    2144.4169    98540.745    18.950114    15.438727    17.081771 
    2940   -193045.95   -193408.46    362.50828    79.072832    2105.2995    98540.745    18.928248    15.401376    17.116561 
    2950   -193045.93   -193404.21    358.27882    78.150274     2071.745    98540.745    18.907317    15.364299     17.15093 
    2960   -193045.93   -193399.82    353.89695    77.194469    2055.2259    98540.745    18.887086    15.327778    17.184365 
    2970   -193045.93   -193399.96    354.02709    77.222856    2055.7849    98540.745    18.867272    15.291827    17.216736 
    2980   -193045.94   -193401.46    355.52043    77.548593    2069.4379    98540.745    18.847413    15.256465    17.248297 
    2990   -193045.95   -193397.44    351.48943    76.669323    2093.0131    98540.745    18.826829    15.221915    17.279576 
    3000   -193045.96   -193383.52    337.55906    73.630735    2117.4793    98540.745    18.804736    15.188605    17.311392 
    3010   -193045.96   -193367.42    321.46441    70.120056    2130.1862    98540.745      18.7805    15.156993    17.344706 
    3020   -193045.96   -193366.66    320.70485    69.954377    2125.1151    98540.745     18.75394    15.127298    17.380151 
    3030   -193045.96   -193382.28    336.31848    73.360129    2103.3225    98540.745    18.725393    15.099336    17.417605 
    3040   -193045.95   -193394.97    349.01587    76.129774    2069.6175    98540.745    18.695468    15.072649    17.456318 
    3050   -193045.94   -193394.71    348.77394    76.077001    2032.7976    98540.745    18.664753    15.046734    17.495393 
    3060   -193045.92   -193387.08    341.15135    74.414311    2003.8352    98540.745     18.63369     15.02118    17.534095 
    3070   -193045.92   -193380.61    334.69059    73.005043    1988.4979    98540.745    18.602574    14.995688    17.571922 
    3080   -193045.92   -193379.98    334.06559    72.868714     1987.055    98540.745    18.571575    14.970077    17.608605 
    3090   -193045.93   -193384.47    338.53898    73.844482    1996.5033    98540.745    18.540758    14.944276    17.644078 
    3100   -193045.94   -193388.17    342.23285    74.650215    2011.6395    98540.745    18.510127    14.918285    17.678397 
    3110   -193045.95      -193385    339.05281    73.956562    2024.5834    98540.745    18.479669    14.892131    17.711645 
    3120   -193045.95   -193379.12    333.17403    72.674241    2029.1015    98540.745    18.449368    14.865846    17.743886 
    3130   -193045.95   -193382.34    336.38691    73.375057    2024.5156    98540.745    18.419219    14.839459    17.775148 
    3140   -193045.95   -193392.31    346.35777     75.54997    2010.7503    98540.745    18.389224    14.812998    17.805424 
    3150   -193045.94   -193397.29    351.35477     76.63995    1989.5513    98540.745    18.359398     14.78649    17.834664 
    3160   -193045.93   -193396.48    350.55973    76.466531    1967.9879    98540.745    18.329769    14.759963    17.862778 
    3170   -193045.92   -193397.13     351.2098     76.60833    1952.6796    98540.745    18.300381    14.733449     17.88963 
    3180   -193045.92   -193404.68    358.75978    78.255184    1947.6272    98540.745    18.271275    14.706958    17.915077 
    3190   -193045.93   -193418.97    373.03862    81.369782    1956.4102    98540.745    18.242438    14.680416    17.939068 
    3200   -193045.94    -193433.7    387.75336    84.579466     1979.812    98540.745    18.213718    14.653597     17.96178 
    3210   -193045.96   -193439.01    393.05186     85.73521    2011.7222    98540.745    18.184755    14.626124    17.983666 
    3220   -193045.97   -193431.15    385.18299    84.018798    2040.4619    98540.745     18.15493     14.59749    18.005424 
    3230   -193045.96   -193414.65    368.69001    80.421235    2135.2205    98540.745    18.123545    14.567208    18.028266 
    3240   -193045.96   -193416.27    370.31238    80.775116    2126.2883    98540.745    18.090256    14.535158    18.053962 
    3250   -193045.96   -193430.35    384.38708    83.845188     2102.668    98540.745    18.054771    14.501444    18.082314 
    3260   -193045.95   -193438.94    392.98288    85.720165     2073.539    98540.745    18.017379     14.46668    18.112841 
    3270   -193045.94   -193437.37    391.42687    85.380756      2052.77    98540.745    17.978801    14.431659    18.145133 
    3280   -193045.94   -193430.02    384.07924    83.778041     2047.176    98540.745        17.94    14.397118    18.179019 
    3290   -193045.93      -193424    378.06695    82.466598    2057.1153    98540.745    17.901992    14.363698    18.214586 
    3300   -193045.93   -193426.97    381.03834    83.114738    2075.7647    98540.745    17.865547    14.331894    18.252154 
    3310   -193045.95   -193438.69    392.73786    85.666718    2014.6134    98540.745    17.830862    14.301891    18.292105 
    3320   -193045.96   -193437.22    391.25561    85.343399    2023.7207    98540.745    17.797842    14.273726    18.333229 
    3330   -193045.96   -193429.39    383.42826    83.636045    2022.8326    98540.745    17.765926    14.247046    18.374441 
    3340   -193045.96   -193424.24    378.28649    82.514486    2013.7799    98540.745    17.734459    14.221323    18.415184 
    3350   -193045.96   -193424.94     378.9888    82.667679    1999.7146    98540.745     17.70302    14.196118    18.454968 
    3360   -193045.94   -193421.49    375.54875    81.917311     1982.395    98540.745    17.671388     14.17112    18.493463 
    3370   -193045.93   -193411.03    365.09809    79.637739    1966.3359    98540.745    17.639481    14.146158    18.530523 
    3380   -193045.92   -193400.08    354.16423    77.252769    1956.5229    98540.745    17.607297    14.121185    18.566151 
    3390   -193045.92   -193394.78    348.86005    76.095785    1955.5037    98540.745    17.574862     14.09622    18.600408 
    3400   -193045.92   -193396.92    351.00375    76.563384    1963.8432    98540.745    17.542206    14.071302    18.633349 
    3410   -193045.93   -193403.86    357.92823    78.073799    1980.8615    98540.745    17.509355    14.046464    18.665008 
    3420   -193045.94   -193408.89    362.94988    79.169158    2002.9703    98540.745    17.476338    14.021715    18.695418 
    3430   -193045.95   -193406.22    360.27003     78.58461    2024.0256    98540.745    17.443194    13.997024    18.724659 
    3432   -193045.95   -193404.96    359.00727    78.309168    2027.5851    98540.745    17.436555    13.992085    18.730382 
Loop time of 503.812 on 1 procs for 2858 steps with 1539 atoms

Performance: 0.049 ns/day, 489.670 hours/ns, 5.673 timesteps/s
99.5% CPU use with 1 MPI tasks x no OpenMP threads

MPI task timing breakdown:
Section |  min time  |  avg time  |  max time  |%varavg| %total
---------------------------------------------------------------
Pair    | 465.92     | 465.92     | 465.92     |   0.0 | 92.48
Bond    | 0.0015428  | 0.0015428  | 0.0015428  |   0.0 |  0.00
Neigh   | 0.73145    | 0.73145    | 0.73145    |   0.0 |  0.15
Comm    | 0.17333    | 0.17333    | 0.17333    |   0.0 |  0.03
Output  | 0.72508    | 0.72508    | 0.72508    |   0.0 |  0.14
Modify  | 36.239     | 36.239     | 36.239     |   0.0 |  7.19
Other   |            | 0.02334    |            |       |  0.00

Nlocal:    1539 ave 1539 max 1539 min
Histogram: 1 0 0 0 0 0 0 0 0 0
Nghost:    5964 ave 5964 max 5964 min
Histogram: 1 0 0 0 0 0 0 0 0 0
Neighs:    312231 ave 312231 max 312231 min
Histogram: 1 0 0 0 0 0 0 0 0 0

Total # of neighbors = 312231
Ave neighs/atom = 202.879
Ave special neighs/atom = 0
Neighbor list builds = 28
Dangerous builds not checked

#Exit the simulation
unfix		qeq
unfix		dyn
unfix		frags
unfix		bonds
clear



Please see the log.cite file for references relevant to this simulation

Total wall time: 0:10:20
