Job opt.01 started on hpc-21-14.cm.cluster at Thu Apr 20 16:22:43 2023
jobid: hpc-21-14-0-6441c938

  +--------------------------------------------------------------------+
  |  Jaguar version 11.7, release 121                                  |
  |                                                                    |
  |  Copyright Schrodinger, Inc.                                       |
  |  All Rights Reserved.                                              |
  |                                                                    |
  |  The following have contributed to Jaguar (listed alphabetically): |
  |  Mike Beachy, Art Bochevarov, Dale Braden, Yixiang Cao,            |
  |  Alan Chien, Chris Cortis, Rich Friesner, Bill Goddard,            |
  |  Hod Greeley, Tom Hughes, Leif Jacobson, Jean-Marc Langlois,       |
  |  Daniel Levine, Daniel Mainz, Rob Murphy, Dean Philipp,            |
  |  Tom Pollard, Murco Ringnalda, Mark Watson, Haoyu Yu.              |
  |                                                                    |
  |  Use of this program should be acknowledged in publications as:    |
  |                                                                    |
  |  Jaguar, version 11.7, Schrodinger, Inc., New York, NY, 2022.      |
  |                                                                    |
  |  A. D. Bochevarov, E. Harder, T. F. Hughes, J. R. Greenwood,       |
  |  D. A. Braden, D. M. Philipp, D. Rinaldo, M. D. Halls,             |
  |  J. Zhang, R. A. Friesner, "Jaguar: A High-Performance Quantum     |
  |  Chemistry Software Program with Strengths in Life and Materials   |
  |  Sciences", Int. J. Quantum Chem., 2013, 113(18), 2110-2142.       |
  +--------------------------------------------------------------------+
  
  start of program pre
  
  Job name: opt.01
  Executables used: /central/groups/wag/programs/Schrodinger_2022_3/jaguar-v11.7/bin/Linux-x86_64
  Temporary files : /central/scratch/musgrave/pkozlows/opt.01
  Maestro file (input):  opt.01.mae
  Maestro file (output): opt.02.mae
  
 Contents of input file: &gen section only
 ----------------Contents start----------------
&gen
basis=6-31g**
igeopt=2
ifreq=1
multip=2
dftname=PBE-D3
&
 -----------------Contents end-----------------
 
  basis set:               6-31g**                         
  net molecular charge:    0
  multiplicity:            2
  
  number of basis functions....           15
  
 Input geometry:
                                   angstroms
  atom               x                 y                 z
  H1            0.0152154623      0.9336786699      0.0000000000 
  H2            0.0016339188      0.0080707190      0.0000000000 
  H3           -0.0168493811     -0.9417493889      0.0000000000 
   
  principal moments of inertia:
        amu*angstrom^2:                 0.00000                 1.77299                 1.77300
                g*cm^2:          5.61561476E-46          2.94412485E-40          2.94413046E-40
   
  rotational constants:
               cm^(-1):        infinite      9.50800313      9.50798499
                   GHz:        infinite    285.04276287    285.04221918
   
  Warning: atom           1  is not bonded to any other atoms
  Warning: atom           2  is not bonded to any other atoms
  Warning: atom           3  is not bonded to any other atoms
  Molecular weight:       3.02 amu
   
  Stoichiometry: H3
  Molecule is linear 
  Molecular Point Group: Cs      
	Molecule translated to center of mass 
	Molecule reoriented along symmetry axes
  Point Group used: Cs
  
  detected            3  molecular fragments
 
Number of optimization coordinates:     4
Number of independent coordinates:      4
Number of non-redundant coordinates:    4
Number of frozen coordinates:           0
Number of harmonic constraints:         0
 
Number of geometric degrees of freedom:     4
Maximum geometric degrees of freedom:       2
 " " " " " excluding dummy atoms:           2
 
  
 Symmetrized geometry:
                                   angstroms
  atom               x                 y                 z
  H1            0.0152154623      0.9336786699      0.0000000000 
  H2            0.0016339188      0.0080707190      0.0000000000 
  H3           -0.0168493811     -0.9417493889      0.0000000000 
   
  Warning: atom           1  is not bonded to any other atoms
  Warning: atom           2  is not bonded to any other atoms
  Warning: atom           3  is not bonded to any other atoms
  nuclear repulsion energy.......             1.410797065 hartrees
 
 Non-default options chosen:
   SCF calculation type: UDFT(pbe-d3)                
   UDFT=PBE(X+LC)+PW91 (PBE-D3)
   Transition state optimization
   Geometry will be optimized in redundant internal coordinates
   Culot/Fletcher trust radius adjustment
      initial trust radius:  0.100
   P-RFO level-shifting used
   Vibrational frequencies and related properties will be computed
      from analytic second derivatives
   IR intensities will be computed
   Thermochemical properties will be computed
   Scaling standard convergence criteria by a factor of   1.00
   Mixed Murtagh-Sargent/Powell Hessian-updating used
  
 Temporary integer options set:
     73=  1
  
  end of program pre
   
 Time(pre)  user:        4.1  user+sys:        4.1  wallclock:        7.7
  
  start of program onee
  
  smallest eigenvalue of S:    4.444E-02
  number of canonical orbitals.....           15
  end of program onee
   
 Time(onee)  user:        0.3  user+sys:        0.3  wallclock:        0.6
  
  start of program hfig
  
  initial wavefunction generated automatically from atomic wavefunctions
  
  -------------------
  Alpha orbital space
  -------------------
 
  Irreducible     Total no   No of occupied orbitals 
  representation  orbitals   Shell_1  Shell_2    ...
  Ap                12          2
  App                3          0
  ------------------------
  Orbital occupation/shell    1.000
 
  ------------------
  Beta orbital space
  ------------------
 
  Irreducible     Total no   No of occupied orbitals 
  representation  orbitals   Shell_1  Shell_2    ...
  Ap                12          1
  App                3          0
  ------------------------
  Orbital occupation/shell    1.000
 
  
  
    Unrestricted Spin Properties ...
    Sz*(Sz+1) ..............     0.750
    <S**2> of initial guess      0.750
  
  
  end of program hfig
   
 Time(hfig)  user:        0.3  user+sys:        0.3  wallclock:        0.5
  
  start of program probe
  
  end of program probe
   
 Time(probe)  user:        0.2  user+sys:        0.2  wallclock:        0.4
  
  start of program grid
  
   grid     grid set  grid #  grid sym
  ------    --------  ------  --------
  coarse        0        0        1
  medium        2        1        2
  fine          0        0        1
  ultrafine     4        2        2
  charge        0        0        1
  gradient      4        2        2
  density       0        0        1
  DFT-fine    -11        3        2
  DFT-med.    -10        4        2
  DFT-grad    -12        5        2
  DFT-der2     -8        6        2
  DFT-cphf     -9        7        2
  LMP2-enrg     4        2        2
  LMP2-grad     2        1        2
  DFT-cphf2   -15        8        2
  PBF-dens      0        0        1
  plotting      0        0        1
  Rel-grad    -17        0        1
  
  number of gridpoints: 
     atom        H1       H2       H3    total
  grid # 1       71       59       71      201
  grid # 2      271      218      275      764
  grid # 3     2430     2430     2430     7290
  grid # 4      756      756      756     2268
  grid # 5     3001     3001     3001     9003
  grid # 6     7413     7413     7413    22239
  grid # 7      464      464      464     1392
  grid # 8      245      245      245      735
   
  end of program grid
   
 Time(grid)  user:        0.3  user+sys:        0.3  wallclock:        0.5
  
  start of program rwr
  
  end of program rwr
   
 Time(rwr)  user:        0.3  user+sys:        0.3  wallclock:        0.4
  
  start of program scf
  
 number of electrons..........          3
 number of alpha electrons....          2
 number of beta electrons.....          1
 number of alpha orbitals.....         15
 number of beta orbitals......         15
 number of alpha occupied orb..         2
 number of alpha virtual orb...        13
 number of beta occupied orb...         1
 number of beta virtual orb....        14
 SCF type: UDFT=PBE(X+LC)+PW91 (PBE-D3)
 Energy computed with NOPS off.
 Convergence Criterion:
    Energy (econv):       1.00E-05
    RMS density (dconv):  5.00E-06
  
       i  u  d  i  g                   
       t  p  i  c  r                                 RMS    maximum
       e  d  i  u  i                       energy  density   DIIS  
       r  t  s  t  d       total energy    change  change    error 
  
etot    1  N  N  5  M      -1.60595375426           9.6E-03  1.3E-01
etot    2  Y  Y  6  M      -1.65217221601  4.6E-02  4.1E-03  4.2E-02
etot    3  N  Y  2  U      -1.65618484247  4.0E-03  5.7E-04  1.2E-02
etot    4  Y  Y  6  M      -1.65635212259  1.7E-04  3.6E-04  2.3E-03
etot    5  Y  Y  6  M      -1.65635502917  2.9E-06  2.0E-04  9.3E-04
etot    6  N  Y  2  U      -1.65636491485  9.9E-06  1.3E-05  1.2E-04
etot    7  N  Y  2  U      -1.65636494981  3.5E-08  2.9E-06  2.2E-05
etot    8  N  N  2  U      -1.65636495110  1.3E-09  0.0E+00  0.0E+00
 
  Computing the dispersion energy correction and its gradients...
  
  
 Energy components, in hartrees:
   (A)  Nuclear repulsion............       1.41079706482
   (E)  Total one-electron terms.....      -4.35130664901
   (I)  Total two-electron terms.....       1.28414463309
   (L)  Electronic energy............      -3.06716201592  (E+I)
   (N0) D3 correction................      -0.00003975154
   (N)  Total energy.................      -1.65640470264  (A+L+N0)
   (O)  Gas phase energy.............      -1.65640470264
  
                                 Total             Coulomb       Exchange+Corr.
 Total two-electron terms       1.28414463309       2.28172630939      -0.99758167631
   Hamiltonian  1........       1.04462182706       1.48041551033      -0.43579368326
   Hamiltonian  2........       0.59587137049       0.80131079907      -0.20543942858
  
 SCFE: SCF energy: UDFT(pbe-d3)        -1.65640470264 hartrees   iterations:   8
  
 
 Alpha HOMO energy:    -0.21423
 Alpha LUMO energy:     0.12234
 
  Alpha Orbital energies (hartrees)/symmetry label: 
    -0.44876 Ap         -0.21423 Ap          0.12234 Ap          0.63634 Ap     
     0.66548 Ap          0.92786 Ap          1.51730 App         1.51730 Ap     
     1.83432 Ap          1.88585 App         1.88585 Ap          2.50355 Ap     
 
 
 Beta HOMO energy:    -0.40734
 Beta LUMO energy:    -0.11946
 
  Beta Orbital energies (hartrees)/symmetry label: 
    -0.40734 Ap         -0.11946 Ap          0.17437 Ap          0.68130 Ap     
     0.74571 Ap          0.97825 Ap          1.55905 App         1.55906 Ap     
     1.92104 Ap          2.00161 App         2.00162 Ap     
 
  
  
    Unrestricted Spin Properties ...
    Sz*(Sz+1)      0.750
    <S**2> ...     0.757
  
  
  end of program scf
   
 Time(scf)  user:        3.6  user+sys:        3.6  wallclock:        6.5
  
  start of program der1a
  
  end of program der1a
   
 Time(der1a)  user:        0.3  user+sys:        0.3  wallclock:        0.7
  
  start of program rwr
  
  end of program rwr
   
 Time(rwr)  user:        0.3  user+sys:        0.3  wallclock:        0.5
  
  start of program der1b
  
   
  forces (hartrees/bohr) : total     
   
 atom  label           x              y              z
 ---- --------   -------------  -------------  -------------
    1 H1          5.389466E-05   1.222112E-04   0.000000E+00
    2 H2         -9.995723E-05   1.327402E-04   0.000000E+00
    3 H3          4.581517E-05  -2.574999E-04   0.000000E+00
 -------------   -------------  -------------  -------------
     total       -2.473943E-07  -2.548402E-06   0.000000E+00
   
  end of program der1b
   
 Time(der1b)  user:        0.3  user+sys:        0.3  wallclock:        0.6
  
  start of program geopt
  
 ----------------------------------------------------------------------------
  Geometry optimization step   1
  Total energy:        -1.65640470264 hartrees
 ----------------------------------------------------------------------------
  detected            3  molecular fragments
  
  Hessian eigenvalues: 
    1.59999E-01    1.60000E-01    2.00537E-01    2.14617E-01
  
 WARNING: Hessian has wrong number of negative eigenvalues:           0
  
  TS search will follow eigenvector   1 on this iteration
  
  Selected vector:  eigenvalue     1.59999E-01

  1)  H1-H2-H3(  2) -0.94853
  
  
  Level shifts adjusted to satisfy step-size constraints
   Step size:    0.1000180
   Cos(theta):   0.1907824
   Final level shift:  -5.2667399E-04
  
  gradient maximum:        2.5571E-04 *  (  4.5000E-04 )
  gradient rms:            1.4921E-04 *  (  3.0000E-04 )
  displacement maximum:    4.6145E-02 .  (  1.8000E-03 )
  displacement rms:        2.8651E-02 .  (  1.2000E-03 )
  
  predicted energy change:   2.6755E-04
  step size:     0.05730
  trust radius:  0.10000
  
  molecular structure not yet converged...
  
  center of mass moved by:
     x:     3.8810E-06     y:     2.2780E-12     z:     0.0000E+00
  
  new geometry: 
                                   angstroms
  atom               x                 y                 z
  H1            0.0061465358      0.9338090594      0.0000000000 
  H2            0.0195415844      0.0078936488      0.0000000000 
  H3           -0.0256881202     -0.9417027083      0.0000000000 
   
  Warning: atom           1  is not bonded to any other atoms
  Warning: atom           2  is not bonded to any other atoms
  Warning: atom           3  is not bonded to any other atoms
  nuclear repulsion energy.......             1.410202648 hartrees
  -------------------------------------------------
 /  end of geometry optimization iteration   1   /
 -------------------------------------------------
   
  end of program geopt
   
 Time(geopt)  user:        0.4  user+sys:        0.4  wallclock:        0.6
  
  start of program onee
  
  smallest eigenvalue of S:    4.460E-02
  number of canonical orbitals.....           15
  end of program onee
   
 Time(onee)  user:        0.3  user+sys:        0.3  wallclock:        0.4
  
  start of program probe
  
  end of program probe
   
 Time(probe)  user:        0.3  user+sys:        0.3  wallclock:        0.4
  
  start of program grid
  
   grid     grid set  grid #  grid sym
  ------    --------  ------  --------
  coarse        0        0        1
  medium        2        1        2
  fine          0        0        1
  ultrafine     4        2        2
  charge        0        0        1
  gradient      4        2        2
  density       0        0        1
  DFT-fine    -11        3        2
  DFT-med.    -10        4        2
  DFT-grad    -12        5        2
  DFT-der2     -8        6        2
  DFT-cphf     -9        7        2
  LMP2-enrg     4        2        2
  LMP2-grad     2        1        2
  DFT-cphf2   -15        8        2
  PBF-dens      0        0        1
  plotting      0        0        1
  Rel-grad    -17        0        1
  
  number of gridpoints: 
     atom        H1       H2       H3    total
  grid # 1       71       59       71      201
  grid # 2      271      217      275      763
  grid # 3     2430     2430     2430     7290
  grid # 4      756      756      756     2268
  grid # 5     3001     3001     3001     9003
  grid # 6     7413     7413     7413    22239
  grid # 7      464      464      464     1392
  grid # 8      245      245      245      735
   
  end of program grid
   
 Time(grid)  user:        0.3  user+sys:        0.3  wallclock:        0.4
  
  start of program rwr
  
  end of program rwr
   
 Time(rwr)  user:        0.2  user+sys:        0.2  wallclock:        0.4
  
  start of program scf
  
 Energy computed with NOPS off.
 Convergence Criterion:
    Energy (econv):       1.00E-05
    RMS density (dconv):  5.00E-06
  
       i  u  d  i  g                   
       t  p  i  c  r                                 RMS    maximum
       e  d  i  u  i                       energy  density   DIIS  
       r  t  s  t  d       total energy    change  change    error 
  
etot    1  N  N  2  U      -1.65632479716           6.1E-05  2.4E-03
etot    2  Y  Y  6  M      -1.65632999449  5.2E-06  1.0E-05  6.3E-05
etot    3  N  Y  2  U      -1.65632914779 -8.5E-07  4.2E-06  2.1E-05
etot    4  N  N  2  U      -1.65632914605 -1.7E-09  0.0E+00  0.0E+00
 
  Computing the dispersion energy correction and its gradients...
  
  
 Energy components, in hartrees:
   (A)  Nuclear repulsion............       1.41020264799
   (E)  Total one-electron terms.....      -4.35037708284
   (I)  Total two-electron terms.....       1.28384528880
   (L)  Electronic energy............      -3.06653179404  (E+I)
   (N0) D3 correction................      -0.00003979374
   (N)  Total energy.................      -1.65636893979  (A+L+N0)
   (O)  Gas phase energy.............      -1.65636893979
  
                                 Total             Coulomb       Exchange+Corr.
 Total two-electron terms       1.28384528880       2.28126357165      -0.99741828285
   Hamiltonian  1........       1.04440777949       1.48013912261      -0.43573134313
   Hamiltonian  2........       0.59572822077       0.80112444903      -0.20539622827
  
 SCFE: SCF energy: UDFT(pbe-d3)        -1.65636893979 hartrees   iterations:   4
  
 
 Alpha HOMO energy:    -0.21421
 Alpha LUMO energy:     0.12195
 
  Alpha Orbital energies (hartrees)/symmetry label: 
    -0.44865 Ap         -0.21421 Ap          0.12195 Ap          0.63625 Ap     
     0.66556 Ap          0.92701 Ap          1.51755 App         1.51831 Ap     
     1.83222 Ap          1.88589 App         1.88721 Ap          2.49999 Ap     
 
 
 Beta HOMO energy:    -0.40724
 Beta LUMO energy:    -0.11944
 
  Beta Orbital energies (hartrees)/symmetry label: 
    -0.40724 Ap         -0.11944 Ap          0.17389 Ap          0.68110 Ap     
     0.74581 Ap          0.97745 Ap          1.55930 App         1.56012 Ap     
     1.91923 Ap          2.00167 App         2.00261 Ap     
 
  
  
    Unrestricted Spin Properties ...
    Sz*(Sz+1)      0.750
    <S**2> ...     0.757
  
  
  end of program scf
   
 Time(scf)  user:        4.5  user+sys:        4.5  wallclock:       12.3
  
  start of program der1a
  
  end of program der1a
   
 Time(der1a)  user:        0.3  user+sys:        0.3  wallclock:        0.9
  
  start of program rwr
  
  end of program rwr
   
 Time(rwr)  user:        0.3  user+sys:        0.3  wallclock:        0.6
  
  start of program der1b
  
   
  forces (hartrees/bohr) : total     
   
 atom  label           x              y              z
 ---- --------   -------------  -------------  -------------
    1 H1          6.750700E-04   1.958232E-06   0.000000E+00
    2 H2         -1.330139E-03   1.682813E-04   0.000000E+00
    3 H3          6.506054E-04  -1.733431E-04   0.000000E+00
 -------------   -------------  -------------  -------------
     total       -4.463281E-06  -3.103601E-06   0.000000E+00
   
  end of program der1b
   
 Time(der1b)  user:        0.3  user+sys:        0.3  wallclock:        0.7
  
  start of program geopt
  
 ----------------------------------------------------------------------------
  Geometry optimization step   2
  Total energy:        -1.65636893979 hartrees
 ----------------------------------------------------------------------------
  detected            3  molecular fragments
  
  Hessian eigenvalues: 
    1.90925E-02    1.59947E-01    2.00156E-01    2.14432E-01
  
 WARNING: Hessian has wrong number of negative eigenvalues:           0
  
  TS search will follow eigenvector   1 on this iteration
  
  Selected vector:  eigenvalue     1.90925E-02

  1)  H1-H2-H3(  2) -0.80546
      H1-H2-H3(  3)  0.59250
  
  
  Level shifts adjusted to satisfy step-size constraints
   Step size:    0.0500899
   Cos(theta):   0.9930191
   Final level shift:  -2.3523887E-02
  
  energy change:           3.5763E-05 *  (  5.0000E-05 )
  gradient maximum:        9.5378E-04 .  (  4.5000E-04 )
  gradient rms:            5.9612E-04 .  (  3.0000E-04 )
  displacement maximum:    4.0330E-02 .  (  1.8000E-03 )
  displacement rms:        2.5045E-02 .  (  1.2000E-03 )
  
  predicted energy change:   8.3077E-05
  step size:     0.05009
  trust radius:  0.05000
  
  molecular structure not yet converged...
  
  center of mass moved by:
     x:     3.3930E-06     y:    -3.6232E-11     z:     0.0000E+00
  
  new geometry: 
                                   angstroms
  atom               x                 y                 z
  H1           -0.0017856783      0.9331357218      0.0000000000 
  H2            0.0351847933      0.0078955021      0.0000000000 
  H3           -0.0333991149     -0.9410312239      0.0000000000 
   
  Warning: atom           1  is not bonded to any other atoms
  Warning: atom           2  is not bonded to any other atoms
  Warning: atom           3  is not bonded to any other atoms
  nuclear repulsion energy.......             1.409999863 hartrees
  -------------------------------------------------
 /  end of geometry optimization iteration   2   /
 -------------------------------------------------
   
  end of program geopt
   
 Time(geopt)  user:        0.3  user+sys:        0.3  wallclock:        0.7
  
  start of program onee
  
  smallest eigenvalue of S:    4.487E-02
  number of canonical orbitals.....           15
  end of program onee
   
 Time(onee)  user:        0.3  user+sys:        0.3  wallclock:        0.5
  
  start of program probe
  
  end of program probe
   
 Time(probe)  user:        0.3  user+sys:        0.3  wallclock:        0.5
  
  start of program grid
  
   grid     grid set  grid #  grid sym
  ------    --------  ------  --------
  coarse        0        0        1
  medium        2        1        2
  fine          0        0        1
  ultrafine     4        2        2
  charge        0        0        1
  gradient      4        2        2
  density       0        0        1
  DFT-fine    -11        3        2
  DFT-med.    -10        4        2
  DFT-grad    -12        5        2
  DFT-der2     -8        6        2
  DFT-cphf     -9        7        2
  LMP2-enrg     4        2        2
  LMP2-grad     2        1        2
  DFT-cphf2   -15        8        2
  PBF-dens      0        0        1
  plotting      0        0        1
  Rel-grad    -17        0        1
  
  number of gridpoints: 
     atom        H1       H2       H3    total
  grid # 1       71       58       71      200
  grid # 2      271      215      275      761
  grid # 3     2430     2430     2430     7290
  grid # 4      756      756      756     2268
  grid # 5     3001     3001     3001     9003
  grid # 6     7413     7413     7413    22239
  grid # 7      464      464      464     1392
  grid # 8      245      245      245      735
   
  end of program grid
   
 Time(grid)  user:        0.3  user+sys:        0.3  wallclock:        1.0
  
  start of program rwr
  
  end of program rwr
   
 Time(rwr)  user:        0.2  user+sys:        0.2  wallclock:        0.6
  
  start of program scf
  
 Energy computed with NOPS off.
 Convergence Criterion:
    Energy (econv):       1.00E-05
    RMS density (dconv):  5.00E-06
  
       i  u  d  i  g                   
       t  p  i  c  r                                 RMS    maximum
       e  d  i  u  i                       energy  density   DIIS  
       r  t  s  t  d       total energy    change  change    error 
  
etot    1  N  N  2  U      -1.65624362301           6.5E-05  2.0E-03
etot    2  Y  Y  6  M      -1.65624776860  4.1E-06  1.5E-05  5.4E-05
etot    3  N  Y  2  U      -1.65624699810 -7.7E-07  6.1E-06  2.4E-05
etot    4  N  Y  2  U      -1.65624699804 -5.3E-11  1.3E-06  7.7E-06
etot    5  N  N  2  U      -1.65624699835  3.0E-10  0.0E+00  0.0E+00
 
  Computing the dispersion energy correction and its gradients...
  
  
 Energy components, in hartrees:
   (A)  Nuclear repulsion............       1.40999986285
   (E)  Total one-electron terms.....      -4.35002661800
   (I)  Total two-electron terms.....       1.28377975680
   (L)  Electronic energy............      -3.06624686120  (E+I)
   (N0) D3 correction................      -0.00003958857
   (N)  Total energy.................      -1.65628658692  (A+L+N0)
   (O)  Gas phase energy.............      -1.65628658692
  
                                 Total             Coulomb       Exchange+Corr.
 Total two-electron terms       1.28377975680       2.28110040394      -0.99732064714
   Hamiltonian  1........       1.04436597870       1.48005795770      -0.43569197900
   Hamiltonian  2........       0.59566962261       0.80104244624      -0.20537282363
  
 SCFE: SCF energy: UDFT(pbe-d3)        -1.65628658692 hartrees   iterations:   5
  
 
 Alpha HOMO energy:    -0.21406
 Alpha LUMO energy:     0.12128
 
  Alpha Orbital energies (hartrees)/symmetry label: 
    -0.44865 Ap         -0.21406 Ap          0.12128 Ap          0.63596 Ap     
     0.66560 Ap          0.92551 Ap          1.51768 App         1.52012 Ap     
     1.82908 Ap          1.88599 App         1.89008 Ap          2.49338 Ap     
 
 
 Beta HOMO energy:    -0.40725
 Beta LUMO energy:    -0.11928
 
  Beta Orbital energies (hartrees)/symmetry label: 
    -0.40725 Ap         -0.11928 Ap          0.17303 Ap          0.68048 Ap     
     0.74589 Ap          0.97619 Ap          1.55942 App         1.56208 Ap     
     1.91667 Ap          2.00179 App         2.00477 Ap     
 
  
  
    Unrestricted Spin Properties ...
    Sz*(Sz+1)      0.750
    <S**2> ...     0.757
  
  
  end of program scf
   
 Time(scf)  user:        4.4  user+sys:        4.4  wallclock:        9.1
  
  start of program der1a
  
  end of program der1a
   
 Time(der1a)  user:        0.3  user+sys:        0.3  wallclock:        0.8
  
  start of program rwr
  
  end of program rwr
   
 Time(rwr)  user:        0.2  user+sys:        0.2  wallclock:        0.4
  
  start of program der1b
  
   
  forces (hartrees/bohr) : total     
   
 atom  label           x              y              z
 ---- --------   -------------  -------------  -------------
    1 H1          1.222387E-03  -2.100648E-05   0.000000E+00
    2 H2         -2.411863E-03   2.049003E-04   0.000000E+00
    3 H3          1.177408E-03  -1.876767E-04   0.000000E+00
 -------------   -------------  -------------  -------------
     total       -1.206844E-05  -3.782932E-06   0.000000E+00
   
  end of program der1b
   
 Time(der1b)  user:        0.3  user+sys:        0.3  wallclock:        0.5
  
  start of program geopt
  
 ----------------------------------------------------------------------------
  Geometry optimization step   3
  Total energy:        -1.65628658692 hartrees
 ----------------------------------------------------------------------------
  detected            3  molecular fragments
  detected            3  molecular fragments
  
  Hessian eigenvalues: 
    1.90888E-02    1.59827E-01    1.99696E-01    2.14453E-01
  
 WARNING: Hessian has wrong number of negative eigenvalues:           0
  
  TS search will follow eigenvector   1 on this iteration
  
  Selected vector:  eigenvalue     1.90888E-02

  1)  H1-H2-H3(  2) -0.80509
      H1-H2-H3(  3)  0.59254
  
  
  Level shifts adjusted to satisfy step-size constraints
   Step size:    0.0707336
   Cos(theta):   0.9973854
   Final level shift:  -2.9961246E-02
  
  energy change:           8.2353E-05 .  (  5.0000E-05 )
  gradient maximum:        1.7244E-03 .  (  4.5000E-04 )
  gradient rms:            1.0716E-03 .  (  3.0000E-04 )
  displacement maximum:    5.6916E-02 .  (  1.8000E-03 )
  displacement rms:        3.5366E-02 .  (  1.2000E-03 )
  
  predicted energy change:   1.9873E-04
  step size:     0.07073
  trust radius:  0.07071
  
  molecular structure not yet converged...
  
  center of mass moved by:
     x:     4.7857E-06     y:    -3.7996E-10     z:     0.0000E+00
  
  new geometry: 
                                   angstroms
  atom               x                 y                 z
  H1           -0.0129664821      0.9309988400      0.0000000000 
  H2            0.0572111900      0.0081584804      0.0000000000 
  H3           -0.0442447079     -0.9391573204      0.0000000000 
   
  Warning: atom           1  is not bonded to any other atoms
  Warning: atom           2  is not bonded to any other atoms
  Warning: atom           3  is not bonded to any other atoms
  nuclear repulsion energy.......             1.410121322 hartrees
  -------------------------------------------------
 /  end of geometry optimization iteration   3   /
 -------------------------------------------------
   
  end of program geopt
   
 Time(geopt)  user:        0.3  user+sys:        0.3  wallclock:        0.4
  
  start of program onee
  
  smallest eigenvalue of S:    4.546E-02
  number of canonical orbitals.....           15
  end of program onee
   
 Time(onee)  user:        0.3  user+sys:        0.3  wallclock:        0.4
  
  start of program probe
  
  end of program probe
   
 Time(probe)  user:        0.2  user+sys:        0.2  wallclock:        0.4
  
  start of program grid
  
   grid     grid set  grid #  grid sym
  ------    --------  ------  --------
  coarse        0        0        1
  medium        2        1        2
  fine          0        0        1
  ultrafine     4        2        2
  charge        0        0        1
  gradient      4        2        2
  density       0        0        1
  DFT-fine    -11        3        2
  DFT-med.    -10        4        2
  DFT-grad    -12        5        2
  DFT-der2     -8        6        2
  DFT-cphf     -9        7        2
  LMP2-enrg     4        2        2
  LMP2-grad     2        1        2
  DFT-cphf2   -15        8        2
  PBF-dens      0        0        1
  plotting      0        0        1
  Rel-grad    -17        0        1
  
  number of gridpoints: 
     atom        H1       H2       H3    total
  grid # 1       71       57       71      199
  grid # 2      271      214      275      760
  grid # 3     2430     2430     2430     7290
  grid # 4      756      756      756     2268
  grid # 5     3001     3001     3001     9003
  grid # 6     7413     7413     7413    22239
  grid # 7      464      464      464     1392
  grid # 8      245      245      245      735
   
  end of program grid
   
 Time(grid)  user:        0.3  user+sys:        0.3  wallclock:        0.6
  
  start of program rwr
  
  end of program rwr
   
 Time(rwr)  user:        0.2  user+sys:        0.2  wallclock:        0.4
  
  start of program scf
  
 Energy computed with NOPS off.
 Convergence Criterion:
    Energy (econv):       1.00E-05
    RMS density (dconv):  5.00E-06
  
       i  u  d  i  g                   
       t  p  i  c  r                                 RMS    maximum
       e  d  i  u  i                       energy  density   DIIS  
       r  t  s  t  d       total energy    change  change    error 
  
etot    1  N  N  2  U      -1.65604220184           1.2E-04  2.8E-03
etot    2  Y  Y  6  M      -1.65605041655  8.2E-06  3.7E-05  8.7E-05
etot    3  N  Y  2  U      -1.65604924036 -1.2E-06  1.5E-05  6.6E-05
etot    4  N  Y  2  U      -1.65604925360  1.3E-08  2.4E-06  1.5E-05
etot    5  N  N  2  U      -1.65604925451  9.1E-10  0.0E+00  0.0E+00
 
  Computing the dispersion energy correction and its gradients...
  
  
 Energy components, in hartrees:
   (A)  Nuclear repulsion............       1.41012132189
   (E)  Total one-electron terms.....      -4.35011555521
   (I)  Total two-electron terms.....       1.28394497881
   (L)  Electronic energy............      -3.06617057640  (E+I)
   (N0) D3 correction................      -0.00003894676
   (N)  Total energy.................      -1.65608820127  (A+L+N0)
   (O)  Gas phase energy.............      -1.65608820127
  
                                 Total             Coulomb       Exchange+Corr.
 Total two-electron terms       1.28394497881       2.28117409722      -0.99722911842
   Hamiltonian  1........       1.04449621348       1.48014642528      -0.43565021179
   Hamiltonian  2........       0.59567128412       0.80102767195      -0.20535638782
  
 SCFE: SCF energy: UDFT(pbe-d3)        -1.65608820127 hartrees   iterations:   5
  
 
 Alpha HOMO energy:    -0.21365
 Alpha LUMO energy:     0.11977
 
  Alpha Orbital energies (hartrees)/symmetry label: 
    -0.44876 Ap         -0.21365 Ap          0.11977 Ap          0.63525 Ap     
     0.66559 Ap          0.92220 Ap          1.51777 App         1.52412 Ap     
     1.82314 Ap          1.88623 App         1.89616 Ap          2.47960 Ap     
 
 
 Beta HOMO energy:    -0.40738
 Beta LUMO energy:    -0.11884
 
  Beta Orbital energies (hartrees)/symmetry label: 
    -0.40738 Ap         -0.11884 Ap          0.17109 Ap          0.67894 Ap     
     0.74598 Ap          0.97353 Ap          1.55946 App         1.56641 Ap     
     1.91168 Ap          2.00204 App         2.00959 Ap     
 
  
  
    Unrestricted Spin Properties ...
    Sz*(Sz+1)      0.750
    <S**2> ...     0.757
  
  
  end of program scf
   
 Time(scf)  user:        4.0  user+sys:        4.0  wallclock:        7.2
  
  start of program der1a
  
  end of program der1a
   
 Time(der1a)  user:        0.3  user+sys:        0.3  wallclock:        0.9
  
  start of program rwr
  
  end of program rwr
   
 Time(rwr)  user:        0.3  user+sys:        0.3  wallclock:        0.4
  
  start of program der1b
  
   
  forces (hartrees/bohr) : total     
   
 atom  label           x              y              z
 ---- --------   -------------  -------------  -------------
    1 H1          2.000159E-03   6.117738E-05   0.000000E+00
    2 H2         -3.941816E-03   2.585723E-04   0.000000E+00
    3 H3          1.915543E-03  -3.245696E-04   0.000000E+00
 -------------   -------------  -------------  -------------
     total       -2.611493E-05  -4.819896E-06   0.000000E+00
   
  end of program der1b
   
 Time(der1b)  user:        0.3  user+sys:        0.3  wallclock:        0.5
  
  start of program geopt
  
 ----------------------------------------------------------------------------
  Geometry optimization step   4
  Total energy:        -1.65608820127 hartrees
 ----------------------------------------------------------------------------
  detected            3  molecular fragments
  detected            3  molecular fragments
  
  Hessian eigenvalues: 
    0.00000E+00    1.91406E-02    1.98980E-01    2.14746E-01
  
 WARNING: Hessian has wrong number of negative eigenvalues:           0
  
  TS search will follow eigenvector   2 on this iteration
  
  Selected vector:  eigenvalue     1.91406E-02

  2)  H1-H2-H3(  2) -0.80427
      H1-H2-H3(  3)  0.59268
  
  
  Level shifts adjusted to satisfy step-size constraints
   Step size:    0.1000110
   Cos(theta):   0.9974141
   Final level shift:  -3.4248493E-02
  
  energy change:           1.9839E-04 .  (  5.0000E-05 )
  gradient maximum:        2.8144E-03 .  (  4.5000E-04 )
  gradient rms:            1.7494E-03 .  (  3.0000E-04 )
  displacement maximum:    8.0345E-02 .  (  1.8000E-03 )
  displacement rms:        5.0005E-02 .  (  1.2000E-03 )
  
  predicted energy change:   4.4415E-04
  step size:     0.10001
  trust radius:  0.10000
  
  molecular structure not yet converged...
  
  center of mass moved by:
     x:     6.7489E-06     y:    -2.0222E-09     z:     0.0000E+00
  
  new geometry: 
                                   angstroms
  atom               x                 y                 z
  H1           -0.0286792181      0.9259778296      0.0000000000 
  H2            0.0881427928      0.0090067819      0.0000000000 
  H3           -0.0594635747     -0.9349846115      0.0000000000 
   
  Warning: atom           1  is not bonded to any other atoms
  Warning: atom           2  is not bonded to any other atoms
  Warning: atom           3  is not bonded to any other atoms
  nuclear repulsion energy.......             1.410627781 hartrees
  -------------------------------------------------
 /  end of geometry optimization iteration   4   /
 -------------------------------------------------
   
  end of program geopt
   
 Time(geopt)  user:        0.4  user+sys:        0.4  wallclock:        0.6
  
  start of program onee
  
  smallest eigenvalue of S:    4.676E-02
  number of canonical orbitals.....           15
  end of program onee
   
 Time(onee)  user:        0.3  user+sys:        0.3  wallclock:        0.4
  
  start of program probe
  
  end of program probe
   
 Time(probe)  user:        0.2  user+sys:        0.2  wallclock:        0.3
  
  start of program grid
  
   grid     grid set  grid #  grid sym
  ------    --------  ------  --------
  coarse        0        0        1
  medium        2        1        2
  fine          0        0        1
  ultrafine     4        2        2
  charge        0        0        1
  gradient      4        2        2
  density       0        0        1
  DFT-fine    -11        3        2
  DFT-med.    -10        4        2
  DFT-grad    -12        5        2
  DFT-der2     -8        6        2
  DFT-cphf     -9        7        2
  LMP2-enrg     4        2        2
  LMP2-grad     2        1        2
  DFT-cphf2   -15        8        2
  PBF-dens      0        0        1
  plotting      0        0        1
  Rel-grad    -17        0        1
  
  number of gridpoints: 
     atom        H1       H2       H3    total
  grid # 1       71       55       71      197
  grid # 2      271      215      275      761
  grid # 3     2430     2430     2430     7290
  grid # 4      756      756      756     2268
  grid # 5     3001     3001     3001     9003
  grid # 6     7413     7413     7413    22239
  grid # 7      464      464      464     1392
  grid # 8      245      245      245      735
   
  end of program grid
   
 Time(grid)  user:        0.3  user+sys:        0.3  wallclock:        0.5
  
  start of program rwr
  
  end of program rwr
   
 Time(rwr)  user:        0.3  user+sys:        0.3  wallclock:        0.4
  
  start of program scf
  
 Energy computed with NOPS off.
 Convergence Criterion:
    Energy (econv):       1.00E-05
    RMS density (dconv):  5.00E-06
  
       i  u  d  i  g                   
       t  p  i  c  r                                 RMS    maximum
       e  d  i  u  i                       energy  density   DIIS  
       r  t  s  t  d       total energy    change  change    error 
  
etot    1  N  N  2  U      -1.65559082027           2.3E-04  3.9E-03
etot    2  Y  Y  6  M      -1.65560824827  1.7E-05  7.6E-05  1.7E-04
etot    3  Y  Y  6  M      -1.65560790150 -3.5E-07  3.0E-05  1.3E-04
etot    4  N  Y  2  U      -1.65560635306 -1.5E-06  1.0E-05  2.9E-05
etot    5  N  Y  2  U      -1.65560635838  5.3E-09  8.7E-07  6.1E-06
etot    6  N  N  2  U      -1.65560635893  5.5E-10  0.0E+00  0.0E+00
 
  Computing the dispersion energy correction and its gradients...
  
  
 Energy components, in hartrees:
   (A)  Nuclear repulsion............       1.41062778125
   (E)  Total one-electron terms.....      -4.35067157142
   (I)  Total two-electron terms.....       1.28443743125
   (L)  Electronic energy............      -3.06623414017  (E+I)
   (N0) D3 correction................      -0.00003749670
   (N)  Total energy.................      -1.65564385563  (A+L+N0)
   (O)  Gas phase energy.............      -1.65564385563
  
                                 Total             Coulomb       Exchange+Corr.
 Total two-electron terms       1.28443743125       2.28151775298      -0.99708032173
   Hamiltonian  1........       1.04487316733       1.48044980744      -0.43557664011
   Hamiltonian  2........       0.59573188282       0.80106794555      -0.20533606273
  
 SCFE: SCF energy: UDFT(pbe-d3)        -1.65564385563 hartrees   iterations:   6
  
 
 Alpha HOMO energy:    -0.21272
 Alpha LUMO energy:     0.11651
 
  Alpha Orbital energies (hartrees)/symmetry label: 
    -0.44904 Ap         -0.21272 Ap          0.11651 Ap          0.63368 Ap     
     0.66553 Ap          0.91544 Ap          1.51785 App         1.53240 Ap     
     1.81256 Ap          1.88677 App         1.90751 Ap          2.45417 Ap     
 
 
 Beta HOMO energy:    -0.40770
 Beta LUMO energy:    -0.11784
 
  Beta Orbital energies (hartrees)/symmetry label: 
    -0.40770 Ap         -0.11784 Ap          0.16690 Ap          0.67557 Ap     
     0.74613 Ap          0.96817 Ap          1.55945 App         1.57541 Ap     
     1.90207 Ap          2.00261 App         2.01930 Ap     
 
  
  
    Unrestricted Spin Properties ...
    Sz*(Sz+1)      0.750
    <S**2> ...     0.757
  
  
  end of program scf
   
 Time(scf)  user:        4.1  user+sys:        4.1  wallclock:        7.3
  
  start of program der1a
  
  end of program der1a
   
 Time(der1a)  user:        0.3  user+sys:        0.3  wallclock:        0.8
  
  start of program rwr
  
  end of program rwr
   
 Time(rwr)  user:        0.3  user+sys:        0.3  wallclock:        0.4
  
  start of program der1b
  
   
  forces (hartrees/bohr) : total     
   
 atom  label           x              y              z
 ---- --------   -------------  -------------  -------------
    1 H1          3.106357E-03   2.934641E-04   0.000000E+00
    2 H2         -6.105974E-03   3.799934E-04   0.000000E+00
    3 H3          2.942431E-03  -6.773223E-04   0.000000E+00
 -------------   -------------  -------------  -------------
     total       -5.718625E-05  -3.864801E-06   0.000000E+00
   
  end of program der1b
   
 Time(der1b)  user:        0.3  user+sys:        0.3  wallclock:        0.5
  
  start of program geopt
  
 ----------------------------------------------------------------------------
  Geometry optimization step   5
  Total energy:        -1.65564385563 hartrees
 ----------------------------------------------------------------------------
  detected            3  molecular fragments
  detected            3  molecular fragments
  
  Hessian eigenvalues: 
    0.00000E+00    1.92018E-02    1.97536E-01    2.15433E-01
  
 WARNING: Hessian has wrong number of negative eigenvalues:           0
  
  TS search will follow eigenvector   2 on this iteration
  
  Selected vector:  eigenvalue     1.92018E-02

  2)  H1-H2-H3(  2)  0.80235
      H1-H2-H3(  3) -0.59311
  
  
  Level shifts adjusted to satisfy step-size constraints
   Step size:    0.1414304
   Cos(theta):   0.9957807
   Final level shift:  -3.6767503E-02
  
  energy change:           4.4435E-04 .  (  5.0000E-05 )
  gradient maximum:        4.3645E-03 .  (  4.5000E-04 )
  gradient rms:            2.7158E-03 .  (  3.0000E-04 )
  displacement maximum:    1.1319E-01 .  (  1.8000E-03 )
  displacement rms:        7.0715E-02 .  (  1.2000E-03 )
  
  predicted energy change:   9.5455E-04
  step size:     0.14143
  trust radius:  0.14142
  
  molecular structure not yet converged...
  
  center of mass moved by:
     x:     9.4914E-06     y:    -9.4191E-09     z:     0.0000E+00
  
  new geometry: 
                                   angstroms
  atom               x                 y                 z
  H1           -0.0505668450      0.9152284802      0.0000000000 
  H2            0.1312498991      0.0112368976      0.0000000000 
  H3           -0.0806830541     -0.9264653777      0.0000000000 
   
 The H1-H2-H3 l bend1 has become non-linear.  (coord    2)
 The H1-H2-H3 l bend2 has become non-linear.  (coord    3)
  
  Change in internal coords is being performed
  for a more optimal set.
  Invalidating history between points   1  and   4

  detected            3  molecular fragments
 
Number of optimization coordinates:     3
Number of independent coordinates:      3
Number of non-redundant coordinates:    3
Number of frozen coordinates:           0
Number of harmonic constraints:         0
 
Number of geometric degrees of freedom:     3
Maximum geometric degrees of freedom:       3
 " " " " " excluding dummy atoms:           3
 
  Warning: atom           1  is not bonded to any other atoms
  Warning: atom           2  is not bonded to any other atoms
  Warning: atom           3  is not bonded to any other atoms
  nuclear repulsion energy.......             1.411629548 hartrees
  -------------------------------------------------
 /  end of geometry optimization iteration   5   /
 -------------------------------------------------
   
  end of program geopt
   
 Time(geopt)  user:        0.4  user+sys:        0.4  wallclock:        0.5
  
  start of program onee
  
  smallest eigenvalue of S:    4.949E-02
  number of canonical orbitals.....           15
  end of program onee
   
 Time(onee)  user:        0.3  user+sys:        0.3  wallclock:        0.4
  
  start of program probe
  
  end of program probe
   
 Time(probe)  user:        0.2  user+sys:        0.2  wallclock:        0.4
  
  start of program grid
  
   grid     grid set  grid #  grid sym
  ------    --------  ------  --------
  coarse        0        0        1
  medium        2        1        2
  fine          0        0        1
  ultrafine     4        2        2
  charge        0        0        1
  gradient      4        2        2
  density       0        0        1
  DFT-fine    -11        3        2
  DFT-med.    -10        4        2
  DFT-grad    -12        5        2
  DFT-der2     -8        6        2
  DFT-cphf     -9        7        2
  LMP2-enrg     4        2        2
  LMP2-grad     2        1        2
  DFT-cphf2   -15        8        2
  PBF-dens      0        0        1
  plotting      0        0        1
  Rel-grad    -17        0        1
  
  number of gridpoints: 
     atom        H1       H2       H3    total
  grid # 1       71       52       71      194
  grid # 2      271      215      275      761
  grid # 3     2430     2430     2430     7290
  grid # 4      756      756      756     2268
  grid # 5     3001     3001     3001     9003
  grid # 6     7413     7413     7413    22239
  grid # 7      464      464      464     1392
  grid # 8      245      245      245      735
   
  end of program grid
   
 Time(grid)  user:        0.3  user+sys:        0.3  wallclock:        0.4
  
  start of program rwr
  
  end of program rwr
   
 Time(rwr)  user:        0.3  user+sys:        0.3  wallclock:        0.4
  
  start of program scf
  
 Energy computed with NOPS off.
 Convergence Criterion:
    Energy (econv):       1.00E-05
    RMS density (dconv):  5.00E-06
  
       i  u  d  i  g                   
       t  p  i  c  r                                 RMS    maximum
       e  d  i  u  i                       energy  density   DIIS  
       r  t  s  t  d       total energy    change  change    error 
  
etot    1  N  N  2  U      -1.65461702833           4.7E-04  5.2E-03
etot    2  Y  Y  6  M      -1.65465721006  4.0E-05  1.6E-04  3.5E-04
etot    3  Y  Y  6  M      -1.65465677800 -4.3E-07  6.0E-05  2.7E-04
etot    4  Y  Y  6  M      -1.65465714664  3.7E-07  2.2E-05  5.8E-05
etot    5  N  Y  2  U      -1.65465459976 -2.5E-06  2.8E-06  2.4E-05
etot    6  N  N  2  U      -1.65465460303  3.3E-09  0.0E+00  0.0E+00
 
  Computing the dispersion energy correction and its gradients...
  
  
 Energy components, in hartrees:
   (A)  Nuclear repulsion............       1.41162954826
   (E)  Total one-electron terms.....      -4.35173745464
   (I)  Total two-electron terms.....       1.28545330334
   (L)  Electronic energy............      -3.06628415129  (E+I)
   (N0) D3 correction................      -0.00003459616
   (N)  Total energy.................      -1.65468919920  (A+L+N0)
   (O)  Gas phase energy.............      -1.65468919920
  
                                 Total             Coulomb       Exchange+Corr.
 Total two-electron terms       1.28545330334       2.28221636705      -0.99676306370
   Hamiltonian  1........       1.04564168389       1.48105311053      -0.43541142664
   Hamiltonian  2........       0.59586199153       0.80116325651      -0.20530126499
  
 SCFE: SCF energy: UDFT(pbe-d3)        -1.65468919920 hartrees   iterations:   6
  
 
 Alpha HOMO energy:    -0.21073
 Alpha LUMO energy:     0.10987
 
  Alpha Orbital energies (hartrees)/symmetry label: 
    -0.44962 Ap         -0.21073 Ap          0.10987 Ap          0.63041 Ap     
     0.66544 Ap          0.90320 Ap          1.51808 App         1.54804 Ap     
     1.79522 Ap          1.88799 App         1.92722 Ap          2.41296 Ap     
 
 
 Beta HOMO energy:    -0.40838
 Beta LUMO energy:    -0.11571
 
  Beta Orbital energies (hartrees)/symmetry label: 
    -0.40838 Ap         -0.11571 Ap          0.15843 Ap          0.66884 Ap     
     0.74656 Ap          0.95859 Ap          1.55948 App         1.59245 Ap     
     1.88503 Ap          2.00393 App         2.03737 Ap     
 
  
  
    Unrestricted Spin Properties ...
    Sz*(Sz+1)      0.750
    <S**2> ...     0.757
  
  
  end of program scf
   
 Time(scf)  user:        4.3  user+sys:        4.3  wallclock:        9.2
  
  start of program der1a
  
  end of program der1a
   
 Time(der1a)  user:        0.3  user+sys:        0.3  wallclock:        0.8
  
  start of program rwr
  
  end of program rwr
   
 Time(rwr)  user:        0.3  user+sys:        0.3  wallclock:        0.3
  
  start of program der1b
  
   
  forces (hartrees/bohr) : total     
   
 atom  label           x              y              z
 ---- --------   -------------  -------------  -------------
    1 H1          4.743032E-03   7.870011E-04   0.000000E+00
    2 H2         -9.195044E-03   6.376594E-04   0.000000E+00
    3 H3          4.404890E-03  -1.422839E-03   0.000000E+00
 -------------   -------------  -------------  -------------
     total       -4.712257E-05   1.821748E-06   0.000000E+00
   
  end of program der1b
   
 Time(der1b)  user:        0.3  user+sys:        0.3  wallclock:        0.4
  
  start of program geopt
  
 ----------------------------------------------------------------------------
  Geometry optimization step   6
  Total energy:        -1.65468919920 hartrees
 ----------------------------------------------------------------------------
  detected            3  molecular fragments
  detected            3  molecular fragments
  
  Hessian eigenvalues: 
    2.07055E-02    1.93974E-01    2.16722E-01
  
 WARNING: Hessian has wrong number of negative eigenvalues:           0
  
  TS search will follow eigenvector   1 on this iteration
  
  Selected vector:  eigenvalue     2.07055E-02

  1)  H1-H2-H3(  2)  0.99452
  
  
  Level shifts adjusted to satisfy step-size constraints
   Step size:    0.1416292
   Cos(theta):   0.9927123
   Final level shift:  -5.5792682E-02
  
  energy change:           9.5466E-04 .  (  5.0000E-05 )
  gradient maximum:        8.4014E-03 .  (  4.5000E-04 )
  gradient rms:            4.8574E-03 .  (  3.0000E-04 )
  displacement maximum:    1.4021E-01 .  (  1.8000E-03 )
  displacement rms:        8.1769E-02 .  (  1.2000E-03 )
  
  predicted energy change:   1.3791E-03
  step size:     0.14163
  trust radius:  0.14142
  
  molecular structure not yet converged...
  
  center of mass moved by:
     x:     9.2970E-06     y:    -3.1535E-08     z:     0.0000E+00
  
  new geometry: 
                                   angstroms
  atom               x                 y                 z
  H1           -0.0723861966      0.9001007347      0.0000000000 
  H2            0.1745042812      0.0154795722      0.0000000000 
  H3           -0.1021180846     -0.9155803069      0.0000000000 
   
  Warning: atom           3  is not bonded to any other atoms
  nuclear repulsion energy.......             1.412408941 hartrees
  -------------------------------------------------
 /  end of geometry optimization iteration   6   /
 -------------------------------------------------
   
  end of program geopt
   
 Time(geopt)  user:        0.4  user+sys:        0.4  wallclock:        0.6
  
  start of program onee
  
  smallest eigenvalue of S:    5.341E-02
  number of canonical orbitals.....           15
  end of program onee
   
 Time(onee)  user:        0.3  user+sys:        0.3  wallclock:        0.4
  
  start of program probe
  
  end of program probe
   
 Time(probe)  user:        0.2  user+sys:        0.2  wallclock:        0.3
  
  start of program grid
  
   grid     grid set  grid #  grid sym
  ------    --------  ------  --------
  coarse        0        0        1
  medium        2        1        2
  fine          0        0        1
  ultrafine     4        2        2
  charge        0        0        1
  gradient      4        2        2
  density       0        0        1
  DFT-fine    -11        3        2
  DFT-med.    -10        4        2
  DFT-grad    -12        5        2
  DFT-der2     -8        6        2
  DFT-cphf     -9        7        2
  LMP2-enrg     4        2        2
  LMP2-grad     2        1        2
  DFT-cphf2   -15        8        2
  PBF-dens      0        0        1
  plotting      0        0        1
  Rel-grad    -17        0        1
  
  number of gridpoints: 
     atom        H1       H2       H3    total
  grid # 1       71       50       71      192
  grid # 2      270      214      274      758
  grid # 3     2430     2430     2430     7290
  grid # 4      756      756      756     2268
  grid # 5     3001     3001     3001     9003
  grid # 6     7413     7413     7413    22239
  grid # 7      464      464      464     1392
  grid # 8      245      245      245      735
   
  end of program grid
   
 Time(grid)  user:        0.3  user+sys:        0.3  wallclock:        0.5
  
  start of program rwr
  
  end of program rwr
   
 Time(rwr)  user:        0.2  user+sys:        0.2  wallclock:        0.4
  
  start of program scf
  
 Energy computed with NOPS off.
 Convergence Criterion:
    Energy (econv):       1.00E-05
    RMS density (dconv):  5.00E-06
  
       i  u  d  i  g                   
       t  p  i  c  r                                 RMS    maximum
       e  d  i  u  i                       energy  density   DIIS  
       r  t  s  t  d       total energy    change  change    error 
  
etot    1  N  N  2  U      -1.65321353906           6.6E-04  4.9E-03
etot    2  Y  Y  6  M      -1.65327092728  5.7E-05  2.5E-04  4.9E-04
etot    3  Y  Y  6  M      -1.65327195815  1.0E-06  8.7E-05  4.0E-04
etot    4  Y  Y  6  M      -1.65327273374  7.8E-07  3.4E-05  8.4E-05
etot    5  N  Y  2  U      -1.65326929025 -3.4E-06  4.4E-06  2.8E-05
etot    6  N  N  2  U      -1.65326929395  3.7E-09  0.0E+00  0.0E+00
 
  Computing the dispersion energy correction and its gradients...
  
  
 Energy components, in hartrees:
   (A)  Nuclear repulsion............       1.41240894123
   (E)  Total one-electron terms.....      -4.35220288224
   (I)  Total two-electron terms.....       1.28652464705
   (L)  Electronic energy............      -3.06567823519  (E+I)
   (N0) D3 correction................      -0.00003096107
   (N)  Total energy.................      -1.65330025503  (A+L+N0)
   (O)  Gas phase energy.............      -1.65330025503
  
                                 Total             Coulomb       Exchange+Corr.
 Total two-electron terms       1.28652464705       2.28272058379      -0.99619593673
   Hamiltonian  1........       1.04644546667       1.48155943380      -0.43511396713
   Hamiltonian  2........       0.59592163392       0.80116114999      -0.20523951607
  
 SCFE: SCF energy: UDFT(pbe-d3)        -1.65330025503 hartrees   iterations:   6
  
 
 Alpha HOMO energy:    -0.20798
 Alpha LUMO energy:     0.10098
 
  Alpha Orbital energies (hartrees)/symmetry label: 
    -0.45028 Ap         -0.20798 Ap          0.10098 Ap          0.62599 Ap     
     0.66562 Ap          0.88948 Ap          1.51868 App         1.56616 Ap     
     1.77600 Ap          1.88987 App         1.95097 Ap          2.36939 Ap     
 
 
 Beta HOMO energy:    -0.40922
 Beta LUMO energy:    -0.11268
 
  Beta Orbital energies (hartrees)/symmetry label: 
    -0.40922 Ap         -0.11268 Ap          0.14723 Ap          0.66030 Ap     
     0.74761 Ap          0.94780 Ap          1.55977 App         1.61235 Ap     
     1.86517 Ap          2.00613 App         2.06007 Ap     
 
  
  
    Unrestricted Spin Properties ...
    Sz*(Sz+1)      0.750
    <S**2> ...     0.757
  
  
  end of program scf
   
 Time(scf)  user:        4.1  user+sys:        4.1  wallclock:        7.1
  
  start of program der1a
  
  end of program der1a
   
 Time(der1a)  user:        0.3  user+sys:        0.3  wallclock:        0.7
  
  start of program rwr
  
  end of program rwr
   
 Time(rwr)  user:        0.3  user+sys:        0.3  wallclock:        0.4
  
  start of program der1b
  
   
  forces (hartrees/bohr) : total     
   
 atom  label           x              y              z
 ---- --------   -------------  -------------  -------------
    1 H1          6.581460E-03   1.368103E-03   0.000000E+00
    2 H2         -1.245650E-02   1.128171E-03   0.000000E+00
    3 H3          5.888431E-03  -2.509640E-03   0.000000E+00
 -------------   -------------  -------------  -------------
     total        1.338829E-05  -1.336542E-05   0.000000E+00
   
  end of program der1b
   
 Time(der1b)  user:        0.3  user+sys:        0.3  wallclock:        0.4
  
  start of program geopt
  
 ----------------------------------------------------------------------------
  Geometry optimization step   7
  Total energy:        -1.65330025503 hartrees
 ----------------------------------------------------------------------------
  detected            2  molecular fragments
  detected            2  molecular fragments
  
  Hessian eigenvalues: 
    2.20938E-02    1.89910E-01    2.19285E-01
  
 WARNING: Hessian has wrong number of negative eigenvalues:           0
  
  TS search will follow eigenvector   1 on this iteration
  
  Selected vector:  eigenvalue     2.20938E-02

  1)  H1-H2-H3(  2)  0.98449
  
  
  Level shifts adjusted to satisfy step-size constraints
   Step size:    0.2007250
   Cos(theta):   0.9818932
   Final level shift:  -5.1763348E-02
  
  energy change:           1.3889E-03 .  (  5.0000E-05 )
  gradient maximum:        1.1648E-02 .  (  4.5000E-04 )
  gradient rms:            6.7430E-03 .  (  3.0000E-04 )
  displacement maximum:    1.9523E-01 .  (  1.8000E-03 )
  displacement rms:        1.1589E-01 .  (  1.2000E-03 )
  
  predicted energy change:   2.6916E-03
  step size:     0.20072
  trust radius:  0.20000
  
  molecular structure not yet converged...
  
  center of mass moved by:
     x:     1.2778E-05     y:    -1.2413E-07     z:     0.0000E+00
  
  new geometry: 
                                   angstroms
  atom               x                 y                 z
  H1           -0.1019277560      0.8713368122      0.0000000000 
  H2            0.2342167248      0.0264348559      0.0000000000 
  H3           -0.1322889688     -0.8977716682      0.0000000000 
   
  Warning: atom           3  is not bonded to any other atoms
  nuclear repulsion energy.......             1.413279503 hartrees
  -------------------------------------------------
 /  end of geometry optimization iteration   7   /
 -------------------------------------------------
   
  end of program geopt
   
 Time(geopt)  user:        0.4  user+sys:        0.4  wallclock:        0.5
  
  start of program onee
  
  smallest eigenvalue of S:    6.071E-02
  number of canonical orbitals.....           15
  end of program onee
   
 Time(onee)  user:        0.3  user+sys:        0.3  wallclock:        0.4
  
  start of program probe
  
  end of program probe
   
 Time(probe)  user:        0.2  user+sys:        0.2  wallclock:        0.3
  
  start of program grid
  
   grid     grid set  grid #  grid sym
  ------    --------  ------  --------
  coarse        0        0        1
  medium        2        1        2
  fine          0        0        1
  ultrafine     4        2        2
  charge        0        0        1
  gradient      4        2        2
  density       0        0        1
  DFT-fine    -11        3        2
  DFT-med.    -10        4        2
  DFT-grad    -12        5        2
  DFT-der2     -8        6        2
  DFT-cphf     -9        7        2
  LMP2-enrg     4        2        2
  LMP2-grad     2        1        2
  DFT-cphf2   -15        8        2
  PBF-dens      0        0        1
  plotting      0        0        1
  Rel-grad    -17        0        1
  
  number of gridpoints: 
     atom        H1       H2       H3    total
  grid # 1       70       51       70      191
  grid # 2      270      215      274      759
  grid # 3     2430     2430     2430     7290
  grid # 4      756      756      756     2268
  grid # 5     3001     3001     3001     9003
  grid # 6     7413     7413     7413    22239
  grid # 7      464      464      464     1392
  grid # 8      245      245      245      735
   
  end of program grid
   
 Time(grid)  user:        0.3  user+sys:        0.3  wallclock:        0.5
  
  start of program rwr
  
  end of program rwr
   
 Time(rwr)  user:        0.2  user+sys:        0.2  wallclock:        0.3
  
  start of program scf
  
 Energy computed with NOPS off.
 Convergence Criterion:
    Energy (econv):       1.00E-05
    RMS density (dconv):  5.00E-06
  
       i  u  d  i  g                   
       t  p  i  c  r                                 RMS    maximum
       e  d  i  u  i                       energy  density   DIIS  
       r  t  s  t  d       total energy    change  change    error 
  
etot    1  N  N  2  U      -1.65037821619           1.4E-03  6.2E-03
etot    2  Y  Y  6  M      -1.65056514295  1.9E-04  5.3E-04  1.1E-03
etot    3  Y  Y  6  M      -1.65057374330  8.6E-06  1.6E-04  7.5E-04
etot    4  Y  Y  6  M      -1.65057538010  1.6E-06  7.9E-05  1.7E-04
etot    5  Y  Y  6  M      -1.65057585156  4.7E-07  6.9E-06  4.3E-05
etot    6  N  Y  2  U      -1.65057674183  8.9E-07  1.9E-06  2.6E-05
etot    7  N  N  2  U      -1.65057674288  1.0E-09  0.0E+00  0.0E+00
 
  Computing the dispersion energy correction and its gradients...
  
  
 Energy components, in hartrees:
   (A)  Nuclear repulsion............       1.41327950271
   (E)  Total one-electron terms.....      -4.35190731757
   (I)  Total two-electron terms.....       1.28805107197
   (L)  Electronic energy............      -3.06385624559  (E+I)
   (N0) D3 correction................      -0.00002513628
   (N)  Total energy.................      -1.65060187916  (A+L+N0)
   (O)  Gas phase energy.............      -1.65060187916
  
                                 Total             Coulomb       Exchange+Corr.
 Total two-electron terms       1.28805107197       2.28324521382      -0.99519414185
   Hamiltonian  1........       1.04754432903       1.48205552368      -0.43451119465
   Hamiltonian  2........       0.59598194979       0.80118969014      -0.20520774035
  
 SCFE: SCF energy: UDFT(pbe-d3)        -1.65060187916 hartrees   iterations:   7
  
 
 Alpha HOMO energy:    -0.20298
 Alpha LUMO energy:     0.08560
 
  Alpha Orbital energies (hartrees)/symmetry label: 
    -0.45124 Ap         -0.20298 Ap          0.08560 Ap          0.61810 Ap     
     0.66647 Ap          0.87182 Ap          1.52051 App         1.58720 Ap     
     1.75149 Ap          1.89383 App         1.99160 Ap          2.31007 Ap     
 
 
 Beta HOMO energy:    -0.41064
 Beta LUMO energy:    -0.10686
 
  Beta Orbital energies (hartrees)/symmetry label: 
    -0.41064 Ap         -0.10686 Ap          0.12813 Ap          0.64634 Ap     
     0.75086 Ap          0.93341 Ap          1.56083 App         1.63627 Ap     
     1.83949 Ap          2.01145 App         2.09969 Ap     
 
  
  
    Unrestricted Spin Properties ...
    Sz*(Sz+1)      0.750
    <S**2> ...     0.757
  
  
  end of program scf
   
 Time(scf)  user:        4.0  user+sys:        4.0  wallclock:        6.4
  
  start of program der1a
  
  end of program der1a
   
 Time(der1a)  user:        0.3  user+sys:        0.3  wallclock:        0.8
  
  start of program rwr
  
  end of program rwr
   
 Time(rwr)  user:        0.2  user+sys:        0.2  wallclock:        0.4
  
  start of program der1b
  
   
  forces (hartrees/bohr) : total     
   
 atom  label           x              y              z
 ---- --------   -------------  -------------  -------------
    1 H1          9.612128E-03   2.262924E-03   0.000000E+00
    2 H2         -1.728205E-02   2.603871E-03   0.000000E+00
    3 H3          7.703615E-03  -4.886446E-03   0.000000E+00
 -------------   -------------  -------------  -------------
     total        3.369473E-05  -1.965093E-05   0.000000E+00
   
  end of program der1b
   
 Time(der1b)  user:        0.3  user+sys:        0.3  wallclock:        0.4
  
  start of program geopt
  
 ----------------------------------------------------------------------------
  Geometry optimization step   8
  Total energy:        -1.65060187916 hartrees
 ----------------------------------------------------------------------------
  detected            2  molecular fragments
  detected            2  molecular fragments
  
  Hessian eigenvalues: 
    2.25292E-02    1.79638E-01    2.25502E-01
  
 WARNING: Hessian has wrong number of negative eigenvalues:           0
  
  TS search will follow eigenvector   1 on this iteration
  
  Selected vector:  eigenvalue     2.25292E-02

  1)  H1-H2-H3(  2)  0.95292
  
  
  Level shifts adjusted to satisfy step-size constraints
   Step size:    0.2828580
   Cos(theta):   0.9463566
   Final level shift:  -4.7087061E-02
  
  energy change:           2.6984E-03 .  (  5.0000E-05 )
  gradient maximum:        1.6791E-02 .  (  4.5000E-04 )
  gradient rms:            9.7797E-03 .  (  3.0000E-04 )
  displacement maximum:    2.5878E-01 .  (  1.8000E-03 )
  displacement rms:        1.6331E-01 .  (  1.2000E-03 )
  
  predicted energy change:   5.0785E-03
  step size:     0.28285
  trust radius:  0.28284
  
  molecular structure not yet converged...
  
  center of mass moved by:
     x:     1.6652E-05     y:    -5.2649E-07     z:     0.0000E+00
  
  new geometry: 
                                   angstroms
  atom               x                 y                 z
  H1           -0.1377797636      0.8183135216      0.0000000000 
  H2            0.3121111047      0.0559111496      0.0000000000 
  H3           -0.1743313412     -0.8742246712      0.0000000000 
   
  Warning: atom           3  is not bonded to any other atoms
  nuclear repulsion energy.......             1.414498041 hartrees
  -------------------------------------------------
 /  end of geometry optimization iteration   8   /
 -------------------------------------------------
   
  end of program geopt
   
 Time(geopt)  user:        0.3  user+sys:        0.3  wallclock:        0.5
  
  start of program onee
  
  smallest eigenvalue of S:    7.323E-02
  number of canonical orbitals.....           15
  end of program onee
   
 Time(onee)  user:        0.3  user+sys:        0.3  wallclock:        0.3
  
  start of program probe
  
  end of program probe
   
 Time(probe)  user:        0.2  user+sys:        0.2  wallclock:        0.3
  
  start of program grid
  
   grid     grid set  grid #  grid sym
  ------    --------  ------  --------
  coarse        0        0        1
  medium        2        1        2
  fine          0        0        1
  ultrafine     4        2        2
  charge        0        0        1
  gradient      4        2        2
  density       0        0        1
  DFT-fine    -11        3        2
  DFT-med.    -10        4        2
  DFT-grad    -12        5        2
  DFT-der2     -8        6        2
  DFT-cphf     -9        7        2
  LMP2-enrg     4        2        2
  LMP2-grad     2        1        2
  DFT-cphf2   -15        8        2
  PBF-dens      0        0        1
  plotting      0        0        1
  Rel-grad    -17        0        1
  
  number of gridpoints: 
     atom        H1       H2       H3    total
  grid # 1       69       53       70      192
  grid # 2      264      219      273      756
  grid # 3     2430     2430     2430     7290
  grid # 4      756      756      756     2268
  grid # 5     3001     3001     3001     9003
  grid # 6     7413     7413     7413    22239
  grid # 7      464      464      464     1392
  grid # 8      245      245      245      735
   
  end of program grid
   
 Time(grid)  user:        0.3  user+sys:        0.3  wallclock:        0.4
  
  start of program rwr
  
  end of program rwr
   
 Time(rwr)  user:        0.2  user+sys:        0.2  wallclock:        0.4
  
  start of program scf
  
 Energy computed with NOPS off.
 Convergence Criterion:
    Energy (econv):       1.00E-05
    RMS density (dconv):  5.00E-06
  
       i  u  d  i  g                   
       t  p  i  c  r                                 RMS    maximum
       e  d  i  u  i                       energy  density   DIIS  
       r  t  s  t  d       total energy    change  change    error 
  
etot    1  N  N  2  U      -1.64480345424           3.2E-03  8.2E-03
etot    2  Y  Y  6  M      -1.64566172280  8.6E-04  1.1E-03  2.4E-03
etot    3  Y  Y  6  M      -1.64570045643  3.9E-05  2.6E-04  1.4E-03
etot    4  Y  Y  6  M      -1.64570662730  6.2E-06  1.8E-04  3.3E-04
etot    5  Y  Y  6  M      -1.64570830745  1.7E-06  1.0E-05  6.6E-05
etot    6  N  Y  2  U      -1.64572827558  2.0E-05  7.0E-07  5.6E-05
etot    7  N  N  2  U      -1.64572827694  1.4E-09  0.0E+00  0.0E+00
 
  Computing the dispersion energy correction and its gradients...
  
  
 Energy components, in hartrees:
   (A)  Nuclear repulsion............       1.41449804142
   (E)  Total one-electron terms.....      -4.34980656897
   (I)  Total two-electron terms.....       1.28958025061
   (L)  Electronic energy............      -3.06022631836  (E+I)
   (N0) D3 correction................      -0.00001712352
   (N)  Total energy.................      -1.64574540046  (A+L+N0)
   (O)  Gas phase energy.............      -1.64574540046
  
                                 Total             Coulomb       Exchange+Corr.
 Total two-electron terms       1.28958025061       2.28425385177      -0.99467360116
   Hamiltonian  1........       1.04872217251       1.48242111717      -0.43369894466
   Hamiltonian  2........       0.59614067924       0.80183273460      -0.20569205536
  
 SCFE: SCF energy: UDFT(pbe-d3)        -1.64574540046 hartrees   iterations:   7
  
 
 Alpha HOMO energy:    -0.19463
 Alpha LUMO energy:     0.06390
 
  Alpha Orbital energies (hartrees)/symmetry label: 
    -0.45233 Ap         -0.19463 Ap          0.06390 Ap          0.60335 Ap     
     0.67169 Ap          0.85903 Ap          1.52557 App         1.57266 Ap     
     1.75104 Ap          1.90203 App         2.06350 Ap          2.24022 Ap     
 
 
 Beta HOMO energy:    -0.41312
 Beta LUMO energy:    -0.09525
 
  Beta Orbital energies (hartrees)/symmetry label: 
    -0.41312 Ap         -0.09525 Ap          0.10071 Ap          0.62457 Ap     
     0.76394 Ap          0.91982 Ap          1.56354 App         1.62660 Ap     
     1.84118 Ap          2.02646 App         2.16951 Ap     
 
  
  
    Unrestricted Spin Properties ...
    Sz*(Sz+1)      0.750
    <S**2> ...     0.757
  
  
  end of program scf
   
 Time(scf)  user:        3.8  user+sys:        3.8  wallclock:        6.2
  
  start of program der1a
  
  end of program der1a
   
 Time(der1a)  user:        0.3  user+sys:        0.3  wallclock:        0.8
  
  start of program rwr
  
  end of program rwr
   
 Time(rwr)  user:        0.2  user+sys:        0.2  wallclock:        0.4
  
  start of program der1b
  
   
  forces (hartrees/bohr) : total     
   
 atom  label           x              y              z
 ---- --------   -------------  -------------  -------------
    1 H1          1.497097E-02   3.836231E-03   0.000000E+00
    2 H2         -2.336911E-02   7.102798E-03   0.000000E+00
    3 H3          8.414680E-03  -1.095783E-02   0.000000E+00
 -------------   -------------  -------------  -------------
     total        1.653592E-05  -1.880198E-05   0.000000E+00
   
  end of program der1b
   
 Time(der1b)  user:        0.3  user+sys:        0.3  wallclock:        0.5
  
  start of program geopt
  
 ----------------------------------------------------------------------------
  Geometry optimization step   9
  Total energy:        -1.64574540046 hartrees
 ----------------------------------------------------------------------------
  detected            2  molecular fragments
  detected            2  molecular fragments
  
  Hessian eigenvalues: 
    1.40391E-02    1.56288E-01    2.40782E-01
  
 WARNING: Hessian has wrong number of negative eigenvalues:           0
  
  TS search will follow eigenvector   1 on this iteration
  
  Selected vector:  eigenvalue     1.40391E-02

  1)  H1-H2-H3(  2)  0.82688
         H2-H3(  3) -0.51972
  
  
  Level shifts adjusted to satisfy step-size constraints
   Step size:    0.3003657
   Cos(theta):   0.8423082
   Final level shift:  -4.9284177E-02
  
  energy change:           4.8565E-03 .  (  5.0000E-05 )
  gradient maximum:        2.4837E-02 .  (  4.5000E-04 )
  gradient rms:            1.4934E-02 .  (  3.0000E-04 )
  displacement maximum:    2.1972E-01 .  (  1.8000E-03 )
  displacement rms:        1.7342E-01 .  (  1.2000E-03 )
  
  predicted energy change:   4.2212E-03
  step size:     0.30036
  trust radius:  0.30000
  
  molecular structure not yet converged...
  
  center of mass moved by:
     x:     1.3251E-05     y:    -1.6946E-06     z:     0.0000E+00
  
  new geometry: 
                                   angstroms
  atom               x                 y                 z
  H1           -0.1532675153      0.7732942555      0.0000000000 
  H2            0.3699298999      0.1171637656      0.0000000000 
  H3           -0.2166623846     -0.8904580211      0.0000000000 
   
  Warning: atom           3  is not bonded to any other atoms
  nuclear repulsion energy.......             1.402278640 hartrees
  -------------------------------------------------
 /  end of geometry optimization iteration   9   /
 -------------------------------------------------
   
  end of program geopt
   
 Time(geopt)  user:        0.3  user+sys:        0.3  wallclock:        0.5
  
  start of program onee
  
  smallest eigenvalue of S:    8.345E-02
  number of canonical orbitals.....           15
  end of program onee
   
 Time(onee)  user:        0.3  user+sys:        0.3  wallclock:        0.4
  
  start of program probe
  
  end of program probe
   
 Time(probe)  user:        0.2  user+sys:        0.2  wallclock:        0.3
  
  start of program grid
  
   grid     grid set  grid #  grid sym
  ------    --------  ------  --------
  coarse        0        0        1
  medium        2        1        2
  fine          0        0        1
  ultrafine     4        2        2
  charge        0        0        1
  gradient      4        2        2
  density       0        0        1
  DFT-fine    -11        3        2
  DFT-med.    -10        4        2
  DFT-grad    -12        5        2
  DFT-der2     -8        6        2
  DFT-cphf     -9        7        2
  LMP2-enrg     4        2        2
  LMP2-grad     2        1        2
  DFT-cphf2   -15        8        2
  PBF-dens      0        0        1
  plotting      0        0        1
  Rel-grad    -17        0        1
  
  number of gridpoints: 
     atom        H1       H2       H3    total
  grid # 1       69       56       69      194
  grid # 2      258      225      282      765
  grid # 3     2430     2430     2430     7290
  grid # 4      756      756      756     2268
  grid # 5     3001     3001     3001     9003
  grid # 6     7413     7413     7413    22239
  grid # 7      464      464      464     1392
  grid # 8      245      245      245      735
   
  end of program grid
   
 Time(grid)  user:        0.3  user+sys:        0.3  wallclock:        0.5
  
  start of program rwr
  
  end of program rwr
   
 Time(rwr)  user:        0.2  user+sys:        0.2  wallclock:        0.4
  
  start of program scf
  
 Energy computed with NOPS off.
 Convergence Criterion:
    Energy (econv):       1.00E-05
    RMS density (dconv):  5.00E-06
  
       i  u  d  i  g                   
       t  p  i  c  r                                 RMS    maximum
       e  d  i  u  i                       energy  density   DIIS  
       r  t  s  t  d       total energy    change  change    error 
  
etot    1  N  N  2  U      -1.64063029860           6.0E-03  1.5E-02
etot    2  Y  Y  6  M      -1.64335287916  2.7E-03  1.8E-03  3.8E-03
etot    3  Y  Y  6  M      -1.64346875221  1.2E-04  3.4E-04  2.0E-03
etot    4  N  Y  2  U      -1.64352850474  6.0E-05  2.7E-04  6.8E-04
etot    5  Y  Y  6  M      -1.64353242386  3.9E-06  2.4E-05  1.1E-04
etot    6  N  Y  2  U      -1.64353200578 -4.2E-07  3.5E-06  2.5E-05
etot    7  N  N  2  U      -1.64353200838  2.6E-09  0.0E+00  0.0E+00
 
  Computing the dispersion energy correction and its gradients...
  
  
 Energy components, in hartrees:
   (A)  Nuclear repulsion............       1.40227864028
   (E)  Total one-electron terms.....      -4.32529432506
   (I)  Total two-electron terms.....       1.27948367640
   (L)  Electronic energy............      -3.04581064866  (E+I)
   (N0) D3 correction................      -0.00001315157
   (N)  Total energy.................      -1.64354515995  (A+L+N0)
   (O)  Gas phase energy.............      -1.64354515995
  
                                 Total             Coulomb       Exchange+Corr.
 Total two-electron terms       1.27948367640       2.27727863590      -0.99779495950
   Hamiltonian  1........       1.04212668845       1.47580351000      -0.43367682155
   Hamiltonian  2........       0.59383746206       0.80147512589      -0.20763766384
  
 SCFE: SCF energy: UDFT(pbe-d3)        -1.64354515995 hartrees   iterations:   7
  
 
 Alpha HOMO energy:    -0.19392
 Alpha LUMO energy:     0.05276
 
  Alpha Orbital energies (hartrees)/symmetry label: 
    -0.44742 Ap         -0.19392 Ap          0.05276 Ap          0.58805 Ap     
     0.68804 Ap          0.86978 Ap          1.49160 Ap          1.54338 App    
     1.81329 Ap          1.90489 App         2.10939 Ap          2.20718 Ap     
 
 
 Beta HOMO energy:    -0.41203
 Beta LUMO energy:    -0.08276
 
  Beta Orbital energies (hartrees)/symmetry label: 
    -0.41203 Ap         -0.08276 Ap          0.08215 Ap          0.60466 Ap     
     0.80562 Ap          0.91470 Ap          1.54916 Ap          1.57426 App    
     1.92648 Ap          2.05655 App         2.20941 Ap     
 
  
  
    Unrestricted Spin Properties ...
    Sz*(Sz+1)      0.750
    <S**2> ...     0.755
  
  
  end of program scf
   
 Time(scf)  user:        4.0  user+sys:        4.0  wallclock:        5.8
  
  start of program der1a
  
  end of program der1a
   
 Time(der1a)  user:        0.3  user+sys:        0.3  wallclock:        0.7
  
  start of program rwr
  
  end of program rwr
   
 Time(rwr)  user:        0.3  user+sys:        0.3  wallclock:        0.5
  
  start of program der1b
  
   
  forces (hartrees/bohr) : total     
   
 atom  label           x              y              z
 ---- --------   -------------  -------------  -------------
    1 H1          1.913792E-02   3.665036E-03   0.000000E+00
    2 H2         -2.320352E-02   1.404349E-02   0.000000E+00
    3 H3          4.055752E-03  -1.771975E-02   0.000000E+00
 -------------   -------------  -------------  -------------
     total       -9.848117E-06  -1.122322E-05   0.000000E+00
   
  end of program der1b
   
 Time(der1b)  user:        0.3  user+sys:        0.3  wallclock:        0.4
  
  start of program geopt
  
[...]
  
  
 Energy components, in hartrees:
   (A)  Nuclear repulsion............       1.41059314962
   (E)  Total one-electron terms.....      -4.35103938345
   (I)  Total two-electron terms.....       1.28408352450
   (L)  Electronic energy............      -3.06695585895  (E+I)
   (N0) D3 correction................      -0.00003986828
   (N)  Total energy.................      -1.65640257761  (A+L+N0)
   (O)  Gas phase energy.............      -1.65640257761
  
                                 Total             Coulomb       Exchange+Corr.
 Total two-electron terms       1.28408352450       2.28154704246      -0.99746351796
   Hamiltonian  1........       1.04457706365       1.48033884480      -0.43576178115
   Hamiltonian  2........       0.59581224152       0.80120819766      -0.20539595614
  
 SCFE: SCF energy: UDFT(pbe-d3)        -1.65640257761 hartrees   iterations:   6
  
 
 Alpha HOMO energy:    -0.21420
 Alpha LUMO energy:     0.12227
 
  Alpha Orbital energies (hartrees)/symmetry label: 
    -0.44875 Ap         -0.21420 Ap          0.12227 Ap          0.63654 Ap     
     0.66539 Ap          0.92760 Ap          1.51724 App         1.51724 Ap     
     1.83420 Ap          1.88587 App         1.88587 Ap          2.50322 Ap     
 
 
 Beta HOMO energy:    -0.40731
 Beta LUMO energy:    -0.11952
 
  Beta Orbital energies (hartrees)/symmetry label: 
    -0.40731 Ap         -0.11952 Ap          0.17433 Ap          0.68173 Ap     
     0.74525 Ap          0.97806 Ap          1.55904 App         1.55904 Ap     
     1.92085 Ap          2.00143 App         2.00143 Ap     
 
  
  
    Unrestricted Spin Properties ...
    Sz*(Sz+1)      0.750
    <S**2> ...     0.757
  
  
  end of program scf
   
 Time(scf)  user:        4.4  user+sys:        4.4  wallclock:       11.6
  
  start of program der1a
  
  end of program der1a
   
 Time(der1a)  user:        0.3  user+sys:        0.3  wallclock:        1.0
  
  start of program rwr
  
  end of program rwr
   
 Time(rwr)  user:        0.2  user+sys:        0.2  wallclock:        0.4
  
  start of program der1b
  
   
  forces (hartrees/bohr) : total     
   
 atom  label           x              y              z
 ---- --------   -------------  -------------  -------------
    1 H1         -1.606126E-05   1.154312E-04   0.000000E+00
    2 H2          4.819137E-05  -3.609063E-05   0.000000E+00
    3 H3         -3.202909E-05  -7.889230E-05   0.000000E+00
 -------------   -------------  -------------  -------------
     total        1.010216E-07   4.482847E-07   0.000000E+00
   
  end of program der1b
   
 Time(der1b)  user:        0.3  user+sys:        0.3  wallclock:        0.5
  
  start of program geopt
  
 ----------------------------------------------------------------------------
  Geometry optimization step  29
  Total energy:        -1.65640257761 hartrees
 ----------------------------------------------------------------------------
  detected            3  molecular fragments
  detected            3  molecular fragments
  detected            3  molecular fragments
  
  TS search will follow eigenvector   1 on this iteration
  
  Selected vector:  eigenvalue    -4.45123E-04

  1)  H1-H2(  1) -0.71007
      H2-H3(  4)  0.70127
  
  
  Level shifts adjusted to satisfy step-size constraints
   Step size:    0.0250562
   Cos(theta):   0.2082960
   Final level shift:  -3.8780682E-04
  
  energy change:          -3.8248E-06 *  (  5.0000E-05 )
  gradient maximum:        1.1357E-04 *  (  4.5000E-04 )
  gradient rms:            7.3436E-05 *  (  3.0000E-04 )
  displacement maximum:    1.7842E-02 .  (  1.8000E-03 )
  displacement rms:        1.2528E-02 .  (  1.2000E-03 )
  
  predicted energy change:   2.4960E-07
  step size:     0.02506
  trust radius:  0.02500
  
  molecular structure not yet converged...
  
  center of mass moved by:
     x:     4.6126E-07     y:     1.5717E-08     z:     0.0000E+00
  
  new geometry: 
                                   angstroms
  atom               x                 y                 z
  H1            0.0755037799      0.9327194704      0.0000000000 
  H2            0.0010919936      0.0045850139      0.0000000000 
  H3           -0.0765957735     -0.9373044843      0.0000000000 
   
  Warning: atom           1  is not bonded to any other atoms
  Warning: atom           2  is not bonded to any other atoms
  Warning: atom           3  is not bonded to any other atoms
  nuclear repulsion energy.......             1.410299052 hartrees
  -------------------------------------------------
 /  end of geometry optimization iteration  29   /
 -------------------------------------------------
   
  end of program geopt
   
 Time(geopt)  user:        0.3  user+sys:        0.3  wallclock:        0.5
  
  start of program onee
  
  smallest eigenvalue of S:    4.448E-02
  number of canonical orbitals.....           15
  end of program onee
   
 Time(onee)  user:        0.3  user+sys:        0.3  wallclock:        0.3
  
  start of program probe
  
  end of program probe
   
 Time(probe)  user:        0.2  user+sys:        0.2  wallclock:        0.4
  
  start of program grid
  
   grid     grid set  grid #  grid sym
  ------    --------  ------  --------
  coarse        0        0        1
  medium        2        1        2
  fine          0        0        1
  ultrafine     4        2        2
  charge        0        0        1
  gradient      4        2        2
  density       0        0        1
  DFT-fine    -11        3        2
  DFT-med.    -10        4        2
  DFT-grad    -12        5        2
  DFT-der2     -8        6        2
  DFT-cphf     -9        7        2
  LMP2-enrg     4        2        2
  LMP2-grad     2        1        2
  DFT-cphf2   -15        8        2
  PBF-dens      0        0        1
  plotting      0        0        1
  Rel-grad    -17        0        1
  
  number of gridpoints: 
     atom        H1       H2       H3    total
  grid # 1       71       59       71      201
  grid # 2      271      220      275      766
  grid # 3     2430     2430     2430     7290
  grid # 4      756      756      756     2268
  grid # 5     3001     3001     3001     9003
  grid # 6     7413     7413     7413    22239
  grid # 7      464      464      464     1392
  grid # 8      245      245      245      735
   
  end of program grid
   
 Time(grid)  user:        0.2  user+sys:        0.2  wallclock:        0.6
  
  start of program rwr
  
  end of program rwr
   
 Time(rwr)  user:        0.2  user+sys:        0.2  wallclock:        0.4
  
  start of program scf
  
 Energy computed with NOPS off.
 Convergence Criterion:
    Energy (econv):       1.00E-05
    RMS density (dconv):  5.00E-06
  
       i  u  d  i  g                   
       t  p  i  c  r                                 RMS    maximum
       e  d  i  u  i                       energy  density   DIIS  
       r  t  s  t  d       total energy    change  change    error 
  
etot    1  N  N  2  U      -1.65632584563           5.2E-04  2.1E-03
etot    2  Y  Y  6  M      -1.65635894428  3.3E-05  3.2E-04  7.4E-04
etot    3  Y  Y  6  M      -1.65636141910  2.5E-06  8.7E-05  4.7E-04
etot    4  Y  Y  6  M      -1.65636216530  7.5E-07  4.4E-05  1.1E-04
etot    5  N  Y  2  U      -1.65636348914  1.3E-06  1.5E-06  1.7E-05
etot    6  N  N  2  U      -1.65636349040  1.3E-09  0.0E+00  0.0E+00
 
  Computing the dispersion energy correction and its gradients...
  
  
 Energy components, in hartrees:
   (A)  Nuclear repulsion............       1.41029905187
   (E)  Total one-electron terms.....      -4.35057756119
   (I)  Total two-electron terms.....       1.28391501892
   (L)  Electronic energy............      -3.06666254226  (E+I)
   (N0) D3 correction................      -0.00003992612
   (N)  Total energy.................      -1.65640341652  (A+L+N0)
   (O)  Gas phase energy.............      -1.65640341652
  
                                 Total             Coulomb       Exchange+Corr.
 Total two-electron terms       1.28391501892       2.28133192115      -0.99741690223
   Hamiltonian  1........       1.04445509529       1.48019564039      -0.43574054510
   Hamiltonian  2........       0.59574959226       0.80113628076      -0.20538668850
  
 SCFE: SCF energy: UDFT(pbe-d3)        -1.65640341652 hartrees   iterations:   6
  
 
 Alpha HOMO energy:    -0.21425
 Alpha LUMO energy:     0.12222
 
  Alpha Orbital energies (hartrees)/symmetry label: 
    -0.44868 Ap         -0.21425 Ap          0.12222 Ap          0.63651 Ap     
     0.66546 Ap          0.92755 Ap          1.51739 App         1.51740 Ap     
     1.83380 Ap          1.88586 App         1.88587 Ap          2.50296 Ap     
 
 
 Beta HOMO energy:    -0.40724
 Beta LUMO energy:    -0.11954
 
  Beta Orbital energies (hartrees)/symmetry label: 
    -0.40724 Ap         -0.11954 Ap          0.17426 Ap          0.68165 Ap     
     0.74544 Ap          0.97795 Ap          1.55919 App         1.55919 Ap     
     1.92045 Ap          2.00150 App         2.00150 Ap     
 
  
  
    Unrestricted Spin Properties ...
    Sz*(Sz+1)      0.750
    <S**2> ...     0.757
  
  
  end of program scf
   
 Time(scf)  user:        4.1  user+sys:        4.1  wallclock:        7.9
  
  start of program der1a
  
  end of program der1a
   
 Time(der1a)  user:        0.3  user+sys:        0.3  wallclock:        0.9
  
  start of program rwr
  
  end of program rwr
   
 Time(rwr)  user:        0.3  user+sys:        0.3  wallclock:        0.3
  
  start of program der1b
  
   
  forces (hartrees/bohr) : total     
   
 atom  label           x              y              z
 ---- --------   -------------  -------------  -------------
    1 H1          2.602087E-05   1.373723E-05   0.000000E+00
    2 H2         -4.298005E-05   7.928344E-05   0.000000E+00
    3 H3          1.676925E-05  -9.448140E-05   0.000000E+00
 -------------   -------------  -------------  -------------
     total       -1.899307E-07  -1.460732E-06   0.000000E+00
   
  end of program der1b
   
 Time(der1b)  user:        0.3  user+sys:        0.3  wallclock:        0.6
  
  start of program geopt
  
 ----------------------------------------------------------------------------
  Geometry optimization step  30
  Total energy:        -1.65640341652 hartrees
 ----------------------------------------------------------------------------
  detected            3  molecular fragments
  detected            3  molecular fragments
  
  TS search will follow eigenvector   1 on this iteration
  
  Selected vector:  eigenvalue    -9.22908E-04

  1)  H1-H2(  1) -0.70682
      H2-H3(  4)  0.70648
  
  
  Level shifts adjusted to satisfy step-size constraints
   Step size:    0.0353826
   Cos(theta):   0.5602107
   Final level shift:  -6.3747684E-04
  
  energy change:          -8.3891E-07 #  (  5.0000E-05 )
  gradient maximum:        9.2293E-05 *  (  4.5000E-04 )
  gradient rms:            5.1713E-05 #  (  3.0000E-04 )
  displacement maximum:    2.5357E-02 .  (  1.8000E-03 )
  displacement rms:        1.7691E-02 .  (  1.2000E-03 )
  
  predicted energy change:   1.3285E-06
  step size:     0.03538
  trust radius:  0.03536
  
  ********************************************************
  **           Geometry optimization complete           **
  ********************************************************
  
  center of mass moved by:
     x:     0.0000E+00     y:     0.0000E+00     z:     0.0000E+00
  
  final geometry: 
                                   angstroms
  atom               x                 y                 z
  H1            0.0755037799      0.9327194704      0.0000000000 
  H2            0.0010919936      0.0045850139      0.0000000000 
  H3           -0.0765957735     -0.9373044843      0.0000000000 
   
  Warning: atom           1  is not bonded to any other atoms
  Warning: atom           2  is not bonded to any other atoms
  Warning: atom           3  is not bonded to any other atoms
  bond lengths (angstroms):
  
  bond angles:
  principal moments of inertia:
        amu*angstrom^2:                 0.00000                 1.77387                 1.77387
                g*cm^2:          1.28942045E-46          2.94557555E-40          2.94557684E-40
   
  rotational constants:
               cm^(-1):        infinite      9.50332041      9.50331625
                   GHz:        infinite    284.90237848    284.90225377
   
  Warning: atom           1  is not bonded to any other atoms
  Warning: atom           2  is not bonded to any other atoms
  Warning: atom           3  is not bonded to any other atoms
  nuclear repulsion energy.......             1.410299052 hartrees
  -------------------------------------------------
 /  end of geometry optimization iteration  30   /
 -------------------------------------------------
   
  end of program geopt
   
 Time(geopt)  user:        3.9  user+sys:        3.9  wallclock:        6.4
  
  start of program cutabab2
  
  end of program cutabab2
   
 Time(cutabab2)  user:        0.3  user+sys:        0.3  wallclock:        0.6
  
  start of program der2a
  
  end of program der2a
   
 Time(der2a)  user:        0.3  user+sys:        0.3  wallclock:        0.4
  
  start of program grid
  
  
   Turning symmetry off because some of the
   following programs cannot use it.
   grid     grid set  grid #  grid sym
  ------    --------  ------  --------
  coarse        0        0        1
  medium        2        1        2
  fine          0        0        1
  ultrafine     4        2        2
  charge        0        0        1
  gradient      4        2        2
  density       0        0        1
  DFT-fine    -11        3        2
  DFT-med.    -10        4        2
  DFT-grad    -12        5        2
  DFT-der2     -8        6        2
  DFT-cphf     -9        7        2
  LMP2-enrg     4        2        2
  LMP2-grad     2        1        2
  DFT-cphf2   -15        8        2
  PBF-dens      0        0        1
  plotting      0        0        1
  Rel-grad    -17        0        1
  
  number of gridpoints: 
     atom        H1       H2       H3    total
  grid # 1      120      102      120      342
  grid # 2      459      378      467     1304
  grid # 3     4304     4304     4304    12912
  grid # 4     1192     1192     1192     3576
  grid # 5     5226     5226     5226    15678
  grid # 6    13718    13718    13718    41154
  grid # 7      744      744      744     2232
  grid # 8      382      382      382     1146
   
  end of program grid
   
 Time(grid)  user:        0.3  user+sys:        0.3  wallclock:        0.7
  
  start of program der2b
  
  end of program der2b
   
 Time(der2b)  user:        0.5  user+sys:        0.5  wallclock:        0.6
  
  start of program der2nda
  
  Computing the dispersion energy correction, gradient, hessian...
 
  end of program der2nda
   
 Time(der2nda)  user:        0.4  user+sys:        0.4  wallclock:        0.6
  
  start of program der2ndb
  
  end of program der2ndb
   
 Time(der2ndb)  user:        0.6  user+sys:        0.6  wallclock:        0.8
  
  start of program rwr
  
  end of program rwr
   
 Time(rwr)  user:        0.2  user+sys:        0.2  wallclock:        0.4
  
  start of program cphfa
  
       1  vectors produced in CPHF
  
     v    i  j  k  i  g
     e    t  c  c  c  r
     c    e  o  o  u  i
     t    r  r  r  t  d       RMS  
  
     1    1  0  0  6  M     8.8E-02
     1    2  0  0  6  M     6.7E-03
     1    3  0  0  6  M     8.6E-04
     1    4  0  0  6  M     7.8E-05
     1    5  0  0  6  M     7.9E-06
  
  
  Atomic Polar Tensors (au): Total
  =========================
  
  APT for atom H1      
  --------------------------------------
        0.0230      -0.0108      -0.0000
       -0.0109      -0.1107      -0.0000
        0.0000       0.0000       0.0239
  --------------------------------------
  
  APT for atom H2      
  --------------------------------------
       -0.0440       0.0210      -0.0000
        0.0210       0.2122      -0.0000
       -0.0000      -0.0000      -0.0457
  --------------------------------------
  
  APT for atom H3      
  --------------------------------------
        0.0210      -0.0102       0.0000
       -0.0101      -0.1016       0.0000
        0.0000       0.0000       0.0218
  --------------------------------------
  
  end of program cphfa
   
 Time(cphfa)  user:        0.6  user+sys:        0.6  wallclock:        0.8
  
  start of program freq
  
   
  Number of frequencies:   4
  harmonic frequencies in cm**-1, reduced masses in amu,
  force constants in mDyne/A, and
  normal modes in cartesian coordinates:           4
  IR intensities in km/mol
  
  vibration #            1         2         3         4
                 --------- --------- --------- ---------
  frequencies      -508.15    975.11    975.11   2043.70
  symmetries       Ap       App      Ap       Ap      
  intensities        66.11      3.03      3.03      0.35
  reduc. mass         0.50      0.50      0.50      0.50
  force const         0.08      0.28      0.28      1.24
    H1       X     0.02978   0.01857   0.40802   0.05786
    H1       Y     0.37109  -0.00145  -0.03194   0.72080
    H1       Z     0.00000   0.40926  -0.01862   0.00000
    H2       X    -0.06598  -0.03685  -0.80979  -0.00171
    H2       Y    -0.80969   0.00300   0.06591  -0.03914
    H2       Z    -0.00000  -0.81247   0.03697  -0.00000
    H3       X     0.03620   0.01828   0.40178  -0.05615
    H3       Y     0.43861  -0.00155  -0.03398  -0.68165
    H3       Z     0.00000   0.40321  -0.01835   0.00000
  
  Number of imaginary frequencies:   1
   
  Writing vibrational animation data to opt.01.vib
  Writing IR vibrational spectrum data to opt.01_vib.spm
  rotational symmetry number:  1

  rotational temperatures (K):     13.673143     13.673137
   
  The Quasi-Harmonic approximation will be applied to compute
  vibrational constributions to thermodynamic properties.
  Frequencies will be adjusted to a minimum value of  100.00 cm^-1.

    1 vibrational frequencies below   0.0 cm-1 not included in zero-point
  energy or thermochemical analysis.  Set freqcut to change the frequency
  cutoff value.

  vibrational temperatures:
       mode:      2        3        4
  temp. (K):  1402.96  1402.96  2940.43
   
   
  Thermodynamic properties calculated assuming an ideal gas

  In the table below, the units for temperature
  are kelvins, the units for U, H, and G are
  kcal/mol and the units for Cv and S are cal/(mol K)

  The zero point energy (ZPE):      5.710 kcal/mol
  is not included in U, H, or G in the table below
  
 
  =============================================================================
  Thermodynamic properties for P = 1.00E+00 atm, calculated at   1 temperatures


  T =   298.15 K, P = 1.00E+00 atm
   
                  U         Cv          S          H          G        ln(Q)
              =========  =========  =========  =========  =========  =========
  trans.          0.889      2.981     29.289      1.481     -7.251   12.23873
  rot.            0.592      1.987      8.112      0.592     -1.826    3.08216
  vib.            0.051      0.821      0.208      0.051     -0.011    0.01822
  elec.           0.000      0.000      1.377      0.000     -0.411    0.69315
  ----------------------------------------------------------------------------
  total           1.532      5.789     38.986      2.125     -9.499   16.03227
   
   Total internal energy, Utot(SCFE + ZPE + U):      -1.644863 hartrees
   Total enthalpy, Htot (Utot + nRT), with n=1:      -1.643918 hartrees
    Total Gibbs free energy, Gtot (Htot - T*S):      -1.662442 hartrees
   
  end of program freq
   
 Time(freq)  user:        4.0  user+sys:        4.0  wallclock:        7.1

 Total cpu seconds     user:      31.025   user+sys:      31.025
  
 Total elapsed time:    493 seconds

Job opt.01 completed on hpc-21-14.cm.cluster at Thu Apr 20 16:30:56 2023
