
#Set velocity (in km/s)
variable v equal 4

#Controls angle of impact
#a = angle from horizontal/10
variable        a equal 9

#Loop through the simulation several times with different random seeds
variable        b equal 1
label           loopb
variable        seed equal 240323*$b
variable        seed equal 240323*1

#Set up impact simulation
print		"<<<<<<<<< Vel=$v, Angle=$a, Test=$b >>>>>>>>>>>"
<<<<<<<<< Vel=4, Angle=9, Test=1 >>>>>>>>>>>
units	        real
newton	     	on
atom_style full

#Periodic boundary conditions
boundary        p p p

#Read the data file
read_data       data.${sname}
read_data       data.pth2o
  triclinic box = (0 0 0) to (44.3939 44.3939 50) with tilt (0 0 0)
  1 by 1 by 1 MPI processor grid
  reading atoms ...
  1539 atoms
  0 = max # of 1-2 neighbors
  0 = max # of 1-3 neighbors
  0 = max # of 1-4 neighbors
  1 = max # of special neighbors

#Obtain the REAX pair coefficients from the ffield file
pair_style      reax/c NULL safezone 5.0 mincap 1200
pair_coeff  	* * ffield.reax Pt H O

#Apply qeq charge equilibration
fix 		qeq all qeq/reax 1 0.0 10.0 1.0e-6 reax/c

#Details of how lammps computes neighboring atoms for pairwise interactions
neighbor        2.5  bin
neigh_modify    delay 10 every 2 check yes one 15000 page 150000

#group impacting H2O by atom ids
group impactor id 1537:1539
3 atoms in group impactor

#Print thermodynamic data every 10 steps
thermo          10

#Randomize initial position and set far to equilibrate
displace_atoms 	impactor move 20.0 20.0 0.0 units box

#Compute the center of mass of the impactor
compute         cmi impactor com
variable        xd equal c_cmi[1]
variable        yd equal c_cmi[2]
variable        zd equal c_cmi[3]
variable        ranangle equal random(0,90,${seed})
variable        ranangle equal random(0,90,240323)
thermo_style    custom step etotal pe ke temp press vol c_cmi[1] c_cmi[2] c_cmi[3]

#Rotate the impactor before beginning simulation
print ">>>>>> Rotated impactor by ${ranangle} <<<<<<<"
>>>>>> Rotated impactor by 38.1471168994904 <<<<<<<
run 0
Neighbor list info ...
  update every 2 steps, delay 10 steps, check yes
  max neighbors/atom: 15000, page size: 150000
  master list distance cutoff = 12.5
  ghost atom cutoff = 12.5
  binsize = 6.25, bins = 8 8 8
  2 neighbor lists, perpetual/occasional/extra = 2 0 0
  (1) pair reax/c, perpetual
      attributes: half, newton off, ghost
      pair build: half/bin/newtoff/ghost
      stencil: half/ghost/bin/3d/newtoff
      bin: standard
  (2) fix qeq/reax, perpetual, copy from (1)
      attributes: half, newton off, ghost
      pair build: copy
      stencil: none
      bin: none
Per MPI rank memory allocation (min/avg/max) = 655.1 | 655.1 | 655.1 Mbytes
Step TotEng PotEng KinEng Temp Press Volume c_cmi[1] c_cmi[2] c_cmi[3] 
       0   -175150.65   -175150.65            0            0   -10243.304    98540.745    22.227217    20.053875    32.690199 
Loop time of 2.14577e-06 on 1 procs for 0 steps with 1539 atoms

139.8% CPU use with 1 MPI tasks x no OpenMP threads

MPI task timing breakdown:
Section |  min time  |  avg time  |  max time  |%varavg| %total
---------------------------------------------------------------
Pair    | 0          | 0          | 0          |   0.0 |  0.00
Bond    | 0          | 0          | 0          |   0.0 |  0.00
Neigh   | 0          | 0          | 0          |   0.0 |  0.00
Comm    | 0          | 0          | 0          |   0.0 |  0.00
Output  | 0          | 0          | 0          |   0.0 |  0.00
Modify  | 0          | 0          | 0          |   0.0 |  0.00
Other   |            | 2.146e-06  |            |       |100.00

Nlocal:    1539 ave 1539 max 1539 min
Histogram: 1 0 0 0 0 0 0 0 0 0
Nghost:    5964 ave 5964 max 5964 min
Histogram: 1 0 0 0 0 0 0 0 0 0
Neighs:    291267 ave 291267 max 291267 min
Histogram: 1 0 0 0 0 0 0 0 0 0

Total # of neighbors = 291267
Ave neighs/atom = 189.257
Ave special neighs/atom = 0
Neighbor list builds = 0
Dangerous builds = 0
displace_atoms  impactor rotate ${xd} ${yd} ${zd} 0.0 0.0 1.0 ${ranangle}
displace_atoms  impactor rotate 22.22721660746 ${yd} ${zd} 0.0 0.0 1.0 ${ranangle}
displace_atoms  impactor rotate 22.22721660746 20.053874955595 ${zd} 0.0 0.0 1.0 ${ranangle}
displace_atoms  impactor rotate 22.22721660746 20.053874955595 32.6901990754796 0.0 0.0 1.0 ${ranangle}
displace_atoms  impactor rotate 22.22721660746 20.053874955595 32.6901990754796 0.0 0.0 1.0 6.82583034038544
displace_atoms  impactor rotate ${xd} ${yd} ${zd} 0.0 1.0 0.0 ${ranangle}
displace_atoms  impactor rotate 22.22721660746 ${yd} ${zd} 0.0 1.0 0.0 ${ranangle}
displace_atoms  impactor rotate 22.22721660746 20.053874955595 ${zd} 0.0 1.0 0.0 ${ranangle}
displace_atoms  impactor rotate 22.22721660746 20.053874955595 32.6901990754796 0.0 1.0 0.0 ${ranangle}
displace_atoms  impactor rotate 22.22721660746 20.053874955595 32.6901990754796 0.0 1.0 0.0 4.71330642700195
displace_atoms  impactor rotate ${xd} ${yd} ${zd} 1.0 0.0 0.0 ${ranangle}
displace_atoms  impactor rotate 22.22721660746 ${yd} ${zd} 1.0 0.0 0.0 ${ranangle}
displace_atoms  impactor rotate 22.22721660746 20.053874955595 ${zd} 1.0 0.0 0.0 ${ranangle}
displace_atoms  impactor rotate 22.22721660746 20.053874955595 32.6901990754796 1.0 0.0 0.0 ${ranangle}
displace_atoms  impactor rotate 22.22721660746 20.053874955595 32.6901990754796 1.0 0.0 0.0 0.0323742628097534

#Simulation timestep
timestep  	0.1

#Print data to lammptrj file
dump            1 all custom ${dumpstep}  ${sname}.$v.lammpstrj id type x y z vx vy vz
dump            1 all custom 100  ${sname}.$v.lammpstrj id type x y z vx vy vz
dump            1 all custom 100  pth2o.$v.lammpstrj id type x y z vx vy vz
dump            1 all custom 100  pth2o.4.lammpstrj id type x y z vx vy vz
dump_modify     1 sort id

#First, minimize structure
min_style       cg
minimize        0.0 1e-6 ${minsteps} 5000
minimize        0.0 1e-6 2000 5000
WARNING: Using 'neigh_modify every 1 delay 0 check yes' setting during minimization (../min.cpp:168)
Per MPI rank memory allocation (min/avg/max) = 657.7 | 657.7 | 657.7 Mbytes
Step TotEng PotEng KinEng Temp Press Volume c_cmi[1] c_cmi[2] c_cmi[3] 
       0   -175150.65   -175150.65            0            0   -10243.304    98540.745    22.227217    20.053875    32.690199 
      10   -180521.25   -180521.25            0            0   -14670.741    98540.745    22.270813     20.03625    32.718326 
      20   -183858.12   -183858.12            0            0     -14040.2    98540.745    22.270813    20.036249    32.718308 
      30    -187033.1    -187033.1            0            0   -12101.108    98540.745    22.270813     20.03625    32.718337 
      40   -189590.85   -189590.85            0            0   -9479.8697    98540.745    22.270813    20.036251    32.718354 
      50   -192125.99   -192125.99            0            0   -7461.2087    98540.745    22.270813     20.03625    32.718338 
      60    -193714.5    -193714.5            0            0    3907.6989    98540.745    22.240719    20.048416    32.698906 
      70   -193725.73   -193725.73            0            0    2580.4512    98540.745    22.233365    20.051389    32.694161 
      80   -193726.37   -193726.37            0            0    2241.1269    98540.745    22.235192     20.05065    32.695341 
      90   -193726.44   -193726.44            0            0    2163.7367    98540.745    22.235113    20.050683    32.695289 
     100   -193726.44   -193726.44            0            0    2167.0216    98540.745    22.235268     20.05062    32.695391 
     108   -193726.44   -193726.44            0            0    2166.1431    98540.745     22.23525    20.050627    32.695376 
Loop time of 45.1124 on 1 procs for 108 steps with 1539 atoms

99.4% CPU use with 1 MPI tasks x no OpenMP threads

Minimization stats:
  Stopping criterion = linesearch alpha is zero
  Energy initial, next-to-last, final = 
        -175150.648513     -193726.443519     -193726.443475
  Force two-norm initial, final = 630.233 0.0253096
  Force max component initial, final = 45.9564 0.0115236
  Final line search alpha, max atom move = 3.05176e-05 3.51673e-07
  Iterations, force evaluations = 108 259

MPI task timing breakdown:
Section |  min time  |  avg time  |  max time  |%varavg| %total
---------------------------------------------------------------
Pair    | 41.174     | 41.174     | 41.174     |   0.0 | 91.27
Bond    | 0.00016379 | 0.00016379 | 0.00016379 |   0.0 |  0.00
Neigh   | 0.02609    | 0.02609    | 0.02609    |   0.0 |  0.06
Comm    | 0.012767   | 0.012767   | 0.012767   |   0.0 |  0.03
Output  | 0.0060527  | 0.0060527  | 0.0060527  |   0.0 |  0.01
Modify  | 3.8731     | 3.8731     | 3.8731     |   0.0 |  8.59
Other   |            | 0.01997    |            |       |  0.04

Nlocal:    1539 ave 1539 max 1539 min
Histogram: 1 0 0 0 0 0 0 0 0 0
Nghost:    5964 ave 5964 max 5964 min
Histogram: 1 0 0 0 0 0 0 0 0 0
Neighs:    302424 ave 302424 max 302424 min
Histogram: 1 0 0 0 0 0 0 0 0 0

Total # of neighbors = 302424
Ave neighs/atom = 196.507
Ave special neighs/atom = 0
Neighbor list builds = 1
Dangerous builds = 0

#Then, run equilibration
velocity 	all create 100.0 4928459 rot yes dist gaussian #generates initial velocities at 100 K  via a gaussian distribution
fix 		equil all nvt temp 100.0 100.0 50.0 #nvt dynamics on all atoms at starting and ending temps of 100 K w 50 fs damping
run 		${eqsteps}
run 		500
Per MPI rank memory allocation (min/avg/max) = 657.8 | 657.8 | 657.8 Mbytes
Step TotEng PotEng KinEng Temp Press Volume c_cmi[1] c_cmi[2] c_cmi[3] 
     108   -193267.99   -193726.44    458.44859          100     2378.811    98540.745     22.23525    20.050627    32.695376 
     110   -193267.99   -193726.42    458.42547    99.994958    2378.2886    98540.745    22.235193    20.051241    32.695248 
     120   -193267.99   -193725.66    457.66384    99.828825    2376.5494    98540.745    22.234905    20.054311     32.69461 
     130   -193267.99   -193724.09    456.09497    99.486613    2376.6724    98540.745    22.234617    20.057381    32.693972 
     140   -193267.99   -193722.06    454.06751     99.04437    2378.9604    98540.745    22.234329    20.060451    32.693334 
     150   -193267.99   -193719.58    451.59061     98.50409    2383.4258    98540.745    22.234041    20.063521    32.692696 
     160   -193267.97   -193716.32    448.34364    97.795838    2389.7716    98540.745    22.233753    20.066592    32.692058 
     170   -193267.96   -193712.03     444.0729    96.864276    2397.4002    98540.745    22.233465    20.069662    32.691421 
     180   -193267.93   -193706.87    438.94639    95.746045    2405.5586    98540.745    22.233178    20.072732    32.690783 
     190   -193267.88   -193701.27    433.38833    94.533683      2413.66    98540.745     22.23289    20.075803    32.690145 
     200   -193267.82   -193695.35    427.53269     93.25641    2421.6033    98540.745    22.232602    20.078873    32.689507 
     210   -193267.73    -193688.8    421.06847    91.846388    2429.8665    98540.745    22.232314    20.081944    32.688869 
     220   -193267.62   -193681.33    413.71206    90.241756     2439.224    98540.745    22.232026    20.085015     32.68823 
     230   -193267.47   -193673.08    405.60666    88.473751    2450.3051    98540.745    22.231738    20.088087    32.687592 
     240   -193267.29   -193664.46     397.1631    86.631983    2463.3233    98540.745     22.23145    20.091159    32.686954 
     250   -193267.08   -193655.69    388.61408    84.767211    2478.1107    98540.745    22.231161    20.094233    32.686315 
     260   -193266.82   -193646.61    379.78694    82.841774    2494.2128    98540.745    22.230873    20.097307    32.685677 
     270   -193266.51   -193636.87    370.35074    80.783485    2510.9168    98540.745    22.230585    20.100382    32.685038 
     280   -193266.16   -193626.45    360.29498    78.590052    2527.3888    98540.745    22.230296    20.103458    32.684398 
     290   -193265.75   -193615.77    350.01603    76.347936    2543.0947    98540.745    22.230008    20.106537    32.683759 
     300   -193265.29   -193605.12    339.82922    74.125918    2558.1408    98540.745    22.229719    20.109617    32.683119 
     310   -193264.77   -193594.37    329.60613    71.895985    2573.1391    98540.745     22.22943    20.112699    32.682478 
     320   -193264.19   -193583.23    319.04048    69.591333    2588.8124    98540.745     22.22914    20.115784    32.681838 
     330   -193263.56   -193571.66    308.09652     67.20416     2605.665    98540.745    22.228851    20.118872    32.681196 
     340   -193262.88   -193559.96    297.07714    64.800535    2623.7699    98540.745    22.228561    20.121963    32.680554 
     350   -193262.16   -193548.47    286.31681    62.453418    2642.7771    98540.745    22.228271    20.125058    32.679911 
     360   -193261.39   -193537.23    275.84301      60.1688    2662.0804    98540.745     22.22798    20.128156    32.679267 
     370   -193260.58   -193525.95    265.36772    57.883857    2680.9936    98540.745    22.227689     20.13126    32.678622 
     380   -193259.75   -193514.43    254.67606    55.551716    2698.8823    98540.745    22.227398    20.134368    32.677976 
     390   -193258.91   -193502.87    243.95809    53.213839    2715.3693    98540.745    22.227106    20.137481    32.677329 
     400   -193258.07   -193491.67     233.5978    50.953981    2730.5063    98540.745    22.226813    20.140599    32.676681 
     410   -193257.24   -193480.93    223.69508     48.79393     2744.836    98540.745     22.22652    20.143724    32.676032 
     420   -193256.43   -193470.43    214.00451    46.680155    2759.1215    98540.745    22.226227    20.146853    32.675382 
     430   -193255.65   -193459.96    204.31084    44.565704    2773.9723    98540.745    22.225933    20.149989    32.674731 
     440    -193254.9   -193449.62    194.71344    42.472252    2789.4625    98540.745    22.225638    20.153131    32.674078 
     450    -193254.2   -193439.75    185.54525    40.472422     2805.118    98540.745    22.225343    20.156278    32.673424 
     460   -193253.54   -193430.57    177.03084      38.6152    2820.1383    98540.745    22.225047    20.159431    32.672769 
     470   -193252.91   -193421.94    169.02691    36.869327    2833.7293    98540.745    22.224751     20.16259    32.672112 
     480   -193252.31   -193413.53    161.21343    35.164997    2845.3852    98540.745    22.224454    20.165755    32.671455 
     490   -193251.74    -193405.3    153.55638    33.494788    2855.0621    98540.745    22.224157    20.168925    32.670796 
     500    -193251.2   -193397.59    146.39109    31.931845    2863.1197    98540.745    22.223859    20.172101    32.670136 
     510   -193250.67   -193390.67    140.00748    30.539406    2870.1518    98540.745    22.223561    20.175283    32.669475 
     520   -193250.15   -193384.48    134.33719    29.302565    2876.8125    98540.745    22.223262    20.178471    32.668813 
     530   -193249.63   -193378.74    129.10259    28.160756    2883.5754    98540.745    22.222962    20.181665    32.668149 
     540   -193249.13   -193373.29     124.1692    27.084652    2890.4733    98540.745    22.222662    20.184866    32.667484 
     550   -193248.62   -193368.34    119.72248    26.114702    2897.0484    98540.745    22.222362    20.188073    32.666818 
     560   -193248.11    -193364.2    116.08945     25.32224    2902.5518    98540.745     22.22206    20.191287     32.66615 
     570    -193247.6   -193360.94    113.33841    24.722163     2906.281    98540.745    22.221758    20.194507    32.665481 
     580   -193247.08   -193358.23    111.15151    24.245143    2907.8394    98540.745    22.221455    20.197735     32.66481 
     590   -193246.56   -193355.79     109.2293    23.825855    2907.3049    98540.745    22.221152    20.200971    32.664138 
     600   -193246.02   -193353.72    107.69264    23.490668    2905.1693    98540.745    22.220848    20.204215    32.663464 
     608   -193245.59   -193352.59    106.99247    23.337944    2902.7717    98540.745    22.220604    20.206815    32.662923 
Loop time of 86.8473 on 1 procs for 500 steps with 1539 atoms

Performance: 0.050 ns/day, 482.485 hours/ns, 5.757 timesteps/s
99.7% CPU use with 1 MPI tasks x no OpenMP threads

MPI task timing breakdown:
Section |  min time  |  avg time  |  max time  |%varavg| %total
---------------------------------------------------------------
Pair    | 80.461     | 80.461     | 80.461     |   0.0 | 92.65
Bond    | 0.00026131 | 0.00026131 | 0.00026131 |   0.0 |  0.00
Neigh   | 0          | 0          | 0          |   0.0 |  0.00
Comm    | 0.023581   | 0.023581   | 0.023581   |   0.0 |  0.03
Output  | 0.031599   | 0.031599   | 0.031599   |   0.0 |  0.04
Modify  | 6.3249     | 6.3249     | 6.3249     |   0.0 |  7.28
Other   |            | 0.005769   |            |       |  0.01

Nlocal:    1539 ave 1539 max 1539 min
Histogram: 1 0 0 0 0 0 0 0 0 0
Nghost:    5964 ave 5964 max 5964 min
Histogram: 1 0 0 0 0 0 0 0 0 0
Neighs:    311995 ave 311995 max 311995 min
Histogram: 1 0 0 0 0 0 0 0 0 0

Total # of neighbors = 311995
Ave neighs/atom = 202.726
Ave special neighs/atom = 0
Neighbor list builds = 0
Dangerous builds = 0
unfix 		equil

#Bring the impactor close to the surface
displace_atoms  impactor move 0.0 0.0 -15.0 units box

#Give the impactor a velocity toward the surface
variable 	impv equal $v*-0.01
variable 	impv equal 4*-0.01
variable 	ang equal PI*$a*10/180.0
variable 	ang equal PI*9*10/180.0
variable 	vy equal ${impv}*cos(${ang})
variable 	vy equal -0.04*cos(${ang})
variable 	vy equal -0.04*cos(1.5707963267949)
variable 	vz equal ${impv}*sin(${ang})
variable 	vz equal -0.04*sin(${ang})
variable 	vz equal -0.04*sin(1.5707963267949)
velocity 	impactor set NULL ${vy} ${vz} sum yes units box
velocity 	impactor set NULL 1.39659253553725e-16 ${vz} sum yes units box
velocity 	impactor set NULL 1.39659253553725e-16 -0.04 sum yes units box

#Guess the number of steps that will be needed
variable impsteps equal ceil(-20/${vz}*10)
variable impsteps equal ceil(-20/-0.04*10)

#Run the impact simulation
fix  		dyn all nve
fix 		frags all reax/c/species 10 10 100 species.$b.$a.out element Pt H O cutoff 2 2 .88 cutoff 3 3 .88 cutoff 2 3 .88
fix 		frags all reax/c/species 10 10 100 species.1.$a.out element Pt H O cutoff 2 2 .88 cutoff 3 3 .88 cutoff 2 3 .88
fix 		frags all reax/c/species 10 10 100 species.1.9.out element Pt H O cutoff 2 2 .88 cutoff 3 3 .88 cutoff 2 3 .88
WARNING: Resetting reneighboring criteria for fix reax/c/species (../fix_reaxc_species.cpp:103)
fix  		bonds all reax/c/bonds 100 bonds.reaxc.$b.$a.${sname}
fix  		bonds all reax/c/bonds 100 bonds.reaxc.1.$a.${sname}
fix  		bonds all reax/c/bonds 100 bonds.reaxc.1.9.${sname}
fix  		bonds all reax/c/bonds 100 bonds.reaxc.1.9.pth2o
run 		${impsteps}
run 		5000
Per MPI rank memory allocation (min/avg/max) = 668.8 | 668.8 | 668.8 Mbytes
Step TotEng PotEng KinEng Temp Press Volume c_cmi[1] c_cmi[2] c_cmi[3] 
     608      -193210   -193352.61    142.60439    31.105864    2919.2537    98540.745    22.220604    20.206815    17.662923 
     610      -193210   -193352.42     142.4126    31.064028     2918.555    98540.745    22.220543    20.207466    17.654788 
     620      -193210   -193351.98    141.97501    30.968579    2915.0201    98540.745    22.220238     20.21072    17.614112 
     630      -193210   -193352.18    142.17397    31.011978    2911.7295    98540.745    22.219933    20.213974    17.573435 
     640   -193210.01   -193352.67    142.66735    31.119596    2908.7229    98540.745    22.219627    20.217228    17.532757 
     650   -193210.01   -193353.41    143.40644    31.280813    2905.4889    98540.745    22.219322    20.220482    17.492079 
     660   -193210.01   -193354.71    144.70589    31.564258    2901.1365    98540.745    22.219017    20.223736      17.4514 
     670   -193210.01   -193356.84    146.82685    32.026896    2894.9254    98540.745    22.218712     20.22699     17.41072 
     680   -193210.01   -193359.57    149.56183    32.623468    2886.6934    98540.745    22.218407    20.230244     17.37004 
     690   -193210.01   -193362.48    152.46968    33.257749    2876.8696    98540.745    22.218102    20.233498    17.329359 
     700   -193210.01   -193365.45    155.44142    33.905965     2866.159    98540.745    22.217797    20.236752    17.288677 
     710   -193210.01   -193368.79    158.78426    34.635129    2855.2458    98540.745    22.217491    20.240006    17.247995 
     720   -193210.01   -193372.79    162.78542     35.50789    2844.6583    98540.745    22.217186     20.24326    17.207312 
     730   -193210.01   -193377.35    167.34572    36.502614    2834.6785    98540.745    22.216881    20.246514    17.166628 
     740   -193210.01   -193382.08    172.06687    37.532424    2825.2542    98540.745    22.216576    20.249768    17.125943 
     750   -193210.01   -193386.69    176.67677    38.537969    2815.9427    98540.745    22.216271    20.253022    17.085257 
     760   -193210.01   -193391.35    181.34289    39.555775    2806.0309    98540.745    22.215965    20.256276     17.04457 
     770   -193210.01   -193396.46    186.44915    40.669587    2794.8414    98540.745     22.21566     20.25953    17.003882 
     780   -193210.01   -193402.03    192.02584    41.886013    2782.1493    98540.745    22.215355    20.262784    16.963193 
     790   -193210.01   -193407.65    197.64211    43.111073    2768.4082    98540.745     22.21505    20.266038    16.922503 
     800   -193210.01   -193412.97    202.96071    44.271205    2754.5274    98540.745    22.214745    20.269292    16.881812 
     810      -193210   -193418.14    208.13112    45.399011    2741.3206    98540.745    22.214439    20.272546     16.84112 
     820      -193210   -193423.53    213.52826    46.576273    2729.2268    98540.745    22.214134      20.2758    16.800426 
     830   -193210.01   -193429.26    219.25565     47.82557    2718.3508    98540.745    22.213829    20.279054    16.759731 
     840   -193210.01      -193435    224.98859    49.076078     2708.474    98540.745    22.213524    20.282308    16.719035 
     850   -193210.01   -193440.33     230.3185    50.238676    2699.0562    98540.745    22.213218    20.285562    16.678337 
     860   -193210.01   -193445.25    235.23598     51.31131     2689.335    98540.745    22.212913    20.288816    16.637637 
     870   -193210.01   -193450.14    240.13284    52.379449    2678.7388    98540.745    22.212608     20.29207    16.596936 
     880   -193210.01   -193455.25    245.23986    53.493427     2667.286    98540.745    22.212302    20.295324    16.556233 
     890   -193210.01    -193460.3    250.28686    54.594315    2655.5558    98540.745    22.211997    20.298578    16.515528 
     900   -193210.01   -193464.88    254.87003    55.594028    2644.3734    98540.745    22.211692    20.301832    16.474822 
     910   -193210.01   -193468.95     258.9457    56.483041    2634.4556    98540.745    22.211386    20.305086    16.434113 
     920   -193210.01   -193472.83    262.82437    57.329083    2626.1268    98540.745    22.211081     20.30834    16.393402 
     930   -193210.01   -193476.78    266.76929    58.189577    2619.3171    98540.745    22.210776    20.311594     16.35269 
     940   -193210.01   -193480.68    270.66685     59.03974    2613.6619    98540.745     22.21047    20.314848    16.311974 
     950   -193210.01   -193484.13     274.1223    59.793467    2608.6176    98540.745    22.210165    20.318101    16.271257 
     960   -193210.01   -193486.93    276.92492    60.404793     2603.539    98540.745     22.20986    20.321355    16.230536 
     970   -193210.01   -193489.35    279.33776    60.931098     2597.864    98540.745    22.209554    20.324609    16.189813 
     980   -193210.01   -193491.76    281.75183    61.457673    2591.5135    98540.745    22.209249    20.327863    16.149087 
     990   -193210.01   -193494.16    284.14881    61.980518    2585.0808    98540.745    22.208943    20.331117    16.108357 
    1000   -193210.01   -193496.17    286.16209    62.419669    2579.5215    98540.745    22.208638    20.334371    16.067624 
    1010   -193210.01   -193497.58    287.57488    62.727836    2575.6002    98540.745    22.208333    20.337624    16.026888 
    1020   -193210.01   -193498.56    288.55347    62.941294    2573.5248    98540.745    22.208027    20.340878    15.986148 
    1030   -193210.01   -193499.44    289.42974    63.132433    2572.9723    98540.745    22.207722    20.344132    15.945403 
    1040   -193210.01   -193500.33    290.31603    63.325755    2573.3034    98540.745    22.207416    20.347386    15.904655 
    1050   -193210.01   -193500.97    290.95431    63.464982     2573.824    98540.745    22.207111    20.350639    15.863901 
    1060   -193210.01   -193501.04    291.02919    63.481314    2573.9476    98540.745    22.206806    20.353893    15.823143 
    1070   -193210.01   -193500.61    290.60234    63.388206    2573.4032    98540.745      22.2065    20.357147     15.78238 
    1080   -193210.01   -193500.07    290.05617    63.269074    2572.3639    98540.745    22.206195    20.360401    15.741612 
    1090   -193210.01   -193499.62    289.60743    63.171192    2571.3738    98540.745    22.205889    20.363654    15.700837 
    1100   -193210.01   -193499.09    289.07926    63.055982    2571.1446    98540.745    22.205584    20.366908    15.660057 
    1110   -193210.01   -193498.19    288.17755    62.859295    2572.2677    98540.745    22.205279    20.370161    15.619269 
    1120   -193210.01   -193496.86    286.84891    62.569484    2574.9107    98540.745    22.204973    20.373415    15.578475 
    1130   -193210.01   -193495.35    285.34298    62.240999    2578.7248    98540.745    22.204668    20.376669    15.537673 
    1140   -193210.01   -193493.96    283.94791    61.936697     2583.024    98540.745    22.204363    20.379922    15.496863 
    1150   -193210.01   -193492.66    282.64537    61.652577    2587.0535    98540.745    22.204057    20.383176    15.456045 
    1160   -193210.01   -193491.13    281.11746    61.319299    2590.2108    98540.745    22.203752    20.386429    15.415217 
    1170   -193210.01    -193489.2    279.18853    60.898547    2592.2722    98540.745    22.203447    20.389683     15.37438 
    1180   -193210.01   -193487.11    277.10656    60.444414    2593.5337    98540.745    22.203142    20.392937    15.333532 
    1190   -193210.01   -193485.25    275.23965     60.03719    2594.6675    98540.745    22.202837     20.39619    15.292672 
    1200   -193210.01   -193483.64    273.63721    59.687656    2596.4037    98540.745    22.202532    20.399444    15.251801 
    1210   -193210.01   -193482.03    272.02568    59.336136      2599.26    98540.745    22.202227    20.402698    15.210916 
    1220   -193210.01   -193480.17    270.15847    58.928847     2603.305    98540.745    22.201922    20.405951    15.170018 
    1230   -193210.01   -193478.12    268.11315    58.482709    2608.0183    98540.745    22.201618    20.409205    15.129106 
    1240   -193210.01   -193476.25    266.23934     58.07398    2612.5374    98540.745    22.201313    20.412459    15.088179 
    1250   -193210.01   -193474.76    264.74946    57.748996    2616.0659    98540.745    22.201008    20.415713    15.047237 
    1260   -193210.01   -193473.44    263.42971    57.461124    2618.1981    98540.745    22.200704    20.418967    15.006278 
    1270   -193210.01   -193471.95    261.93542    57.135179    2619.0452    98540.745    22.200399    20.422221    14.965301 
    1280   -193210.01   -193470.29     260.2843    56.775025    2619.0877    98540.745    22.200095    20.425475    14.924307 
    1290   -193210.01   -193468.85    258.84227     56.46048    2618.8003    98540.745     22.19979    20.428729    14.883294 
    1300   -193210.01   -193467.88    257.87553    56.249609    2618.9692    98540.745    22.199486    20.431983     14.84226 
    1310   -193210.01   -193467.26    257.25083    56.113343    2619.8688    98540.745    22.199183    20.435238    14.801202 
    1320   -193210.01   -193466.63      256.619    55.975523    2621.5435    98540.745    22.198881    20.438494    14.760118 
    1330   -193210.01   -193465.83    255.81534    55.800225    2623.6016    98540.745     22.19858    20.441751    14.719008 
    1340   -193210.01    -193465.1    255.08491    55.640899     2625.138    98540.745     22.19828    20.445009     14.67787 
    1350   -193210.01   -193464.82    254.81309    55.581606    2625.5139    98540.745    22.197981    20.448268    14.636699 
    1360   -193210.01   -193465.01    254.99906    55.622171    2624.0797    98540.745    22.197682     20.45153    14.595495 
    1370   -193210.01   -193465.25    255.23681    55.674031      2621.11    98540.745    22.197382    20.454793    14.554255 
    1380   -193210.01    -193465.3    255.28997    55.685628    2617.4811    98540.745    22.197079    20.458058     14.51298 
    1390   -193210.01   -193465.41     255.4052    55.710762    2613.9721    98540.745    22.196774    20.461324    14.471671 
    1400   -193210.01   -193465.97    255.96302    55.832438      2611.05    98540.745    22.196464    20.464591     14.43033 
    1410   -193210.01   -193467.01    257.00365    56.059426     2608.884    98540.745    22.196148    20.467859    14.388958 
    1420   -193210.01   -193468.19    258.17831    56.315652    2607.3319    98540.745    22.195825    20.471126     14.34756 
    1430   -193210.01   -193469.16    259.14629    56.526795    2605.8778    98540.745    22.195493    20.474391    14.306136 
    1440   -193210.01   -193470.01    259.99896    56.712785    2603.6219    98540.745     22.19515    20.477653    14.264691 
    1450   -193210.01   -193471.18    261.16956    56.968125    2599.8974    98540.745    22.194796    20.480909    14.223225 
    1460   -193210.01   -193472.87    262.85978    57.336807    2594.8218    98540.745    22.194431    20.484159    14.181736 
    1470   -193210.01   -193474.75    264.73832    57.746568    2589.0536    98540.745    22.194056    20.487401    14.140222 
    1480   -193209.98   -193476.37    266.39034    58.106916    2583.7138    98540.745    22.193671    20.490637    14.098681 
    1490   -193209.98   -193477.76    267.78185    58.410443     2579.401    98540.745    22.193269    20.493869    14.057121 
    1500   -193209.97   -193479.23    269.25381    58.731516    2575.4309    98540.745    22.192842    20.497103    14.015559 
    1510   -193209.85   -193480.91    271.06144     59.12581    2571.5338    98540.745    22.192378    20.500355    13.974012 
    1520   -193209.85   -193482.91    273.06075    59.561914    2567.7088    98540.745    22.191864    20.503651    13.932503 
    1530   -193209.85   -193484.69    274.84613    59.951354    2565.0721    98540.745    22.191286    20.507014    13.891069 
    1540   -193209.85   -193485.91    276.05989    60.216107    2567.3218    98540.745    22.190592    20.510443    13.849852 
    1550   -193209.85   -193485.79    275.94585    60.191232    2583.8597    98540.745    22.189561    20.513833    13.809384 
    1560   -193209.85   -193484.59    274.73714     59.92758    2589.8997    98540.745    22.187686      20.5169    13.770845 
    1570   -193209.86   -193483.93    274.07204    59.782504    2581.2294    98540.745    22.184689    20.519574    13.734818 
    1580   -193209.86   -193485.27    275.41133    60.074638    2562.6173    98540.745    22.180714    20.522078    13.700892 
    1590   -193209.86   -193493.39    283.52717    61.844923    2545.9423    98540.745    22.176139    20.524767    13.668088 
    1600   -193209.88   -193500.87    290.99139    63.473071    2539.7854    98540.745     22.17123    20.527661    13.635714 
    1610   -193209.87    -193498.2    288.33877    62.894462    2523.2801    98540.745    22.166089    20.530229    13.603817 
    1620   -193209.85   -193491.01    281.15444    61.327366    2513.6029    98540.745    22.160911    20.531955    13.572499 
    1630   -193209.85   -193485.94    276.08961     60.22259    2517.2474    98540.745    22.155603     20.53256     13.54221 
    1640   -193209.85   -193489.69    279.84106    61.040883    2521.7154    98540.745      22.1498    20.531937    13.513749 
    1650   -193209.87   -193500.81    290.93756    63.461327    2520.6263    98540.745    22.143346    20.530227    13.487443 
    1660   -193209.88   -193503.61    293.73303    64.071095    2518.2999    98540.745    22.136457    20.528014    13.462849 
    1670   -193209.88   -193494.75    284.86578    62.136909    2518.5137    98540.745    22.129285    20.526072    13.439511 
    1680   -193209.83   -193485.64     275.8165    60.163016    2516.9232    98540.745    22.121667    20.524733    13.417401 
    1690   -193209.84   -193486.49    276.64934    60.344681    2511.3909    98540.745    22.113436    20.523966    13.396661 
    1700   -193209.84   -193496.43    286.58378     62.51165    2504.1019    98540.745    22.104579    20.523577     13.37737 
    1710   -193209.84   -193501.01    291.17456    63.513023    2500.9201    98540.745     22.09527    20.523098    13.359669 
    1720   -193209.82   -193491.53    281.71479    61.449594    2507.7566    98540.745    22.085642    20.521734    13.344259 
    1730   -193209.81    -193482.3     272.4976    59.439075    2516.7214    98540.745    22.075244    20.518787    13.332385 
    1740   -193209.82   -193486.04    276.21635    60.250235    2517.1594    98540.745    22.063603    20.514032    13.324706 
    1750   -193209.85   -193494.44    284.58952     62.07665    2512.3515    98540.745    22.051051    20.507651    13.320548 
    1760   -193209.87   -193496.16    286.29057    62.447694    2509.1392    98540.745    22.038288    20.500144    13.318709 
    1770   -193209.86   -193489.69    279.82907    61.038266    2501.6033    98540.745    22.025523    20.492272    13.318521 
    1780   -193209.85   -193484.21    274.35852    59.844993    2486.8229    98540.745    22.012494    20.484629    13.319852 
    1790   -193209.84   -193485.18    275.33531    60.058055    2469.8166    98540.745     21.99895    20.477429    13.322676 
    1800   -193209.83   -193490.08    280.24714    61.129458    2456.7941    98540.745    21.984845    20.470683    13.326929 
    1810   -193209.81    -193492.2    282.38196    61.595122     2452.443    98540.745    21.970283    20.464171    13.332588 
    1820   -193209.84    -193488.1     278.2569    60.695335     2454.574    98540.745    21.955388    20.457304    13.339882 
    1830   -193209.85   -193484.92     275.0712    60.000448    2460.2175    98540.745    21.940224    20.449442    13.349073 
    1840   -193209.85   -193484.53    274.67475     59.91397    2469.7451    98540.745    21.924977    20.440354    13.360081 
    1850   -193209.86   -193484.23    274.36834    59.847134    2482.9166    98540.745    21.909962    20.430076     13.37254 
    1860   -193209.84   -193486.69    276.84528    60.387423    2495.2226    98540.745    21.895358    20.418769    13.386163 
    1870   -193209.85   -193490.66    280.81394    61.253092    2496.8622    98540.745    21.881058    20.406768    13.400849 
    1880   -193209.84   -193488.64     278.7952    60.812753    2485.5123    98540.745    21.866785    20.394606     13.41656 
    1890   -193209.83   -193481.84    272.01325    59.333427    2473.9376    98540.745    21.852252    20.382616    13.433326 
    1900   -193209.82   -193475.79    265.96988    58.015204    2468.1201    98540.745    21.837237    20.370743    13.451525 
    1910   -193209.82   -193474.99    265.17608    57.842055    2464.7884    98540.745    21.821584    20.358771     13.47167 
    1920   -193209.82   -193480.31    270.49386    59.002005    2463.5145    98540.745    21.805327    20.346594    13.493843 
    1930   -193209.84   -193486.53    276.68915    60.353365    2465.6619    98540.745    21.788734    20.334238    13.517539 
    1940   -193209.83   -193487.23    277.39907    60.508218    2470.0782    98540.745    21.772215     20.32175    13.542039 
    1950   -193209.83    -193480.5    270.67061    59.040559    2473.5458    98540.745    21.756078    20.309082    13.566812 
    1960   -193209.83   -193472.27     262.4472    57.246813     2468.478    98540.745    21.740459    20.296126    13.591615 
    1970   -193209.82   -193470.07    260.24974    56.767488    2450.7885    98540.745    21.725465     20.28281    13.616248 
    1980   -193209.85   -193471.48    261.63278    57.069165     2417.199    98540.745     21.71134     20.26918    13.640286 
    1990   -193209.85   -193469.04    259.19576    56.537585    2377.7726    98540.745     21.69852    20.255487    13.662919 
    2000   -193209.84   -193461.09    251.25001    54.804403    2346.1448    98540.745    21.687467    20.242162    13.683203 
    2010   -193209.83   -193451.05    241.22081    52.616764    2328.0678    98540.745    21.678412    20.229705    13.700479 
    2020   -193209.83   -193443.96     234.1325    51.070612    2322.8274    98540.745    21.671295    20.218516    13.714542 
    2030   -193209.83   -193442.17    232.33945    50.679499      2328.28    98540.745    21.665966    20.208798    13.725508 
    2040   -193209.84   -193443.77    233.93459    51.027442    2340.9157    98540.745    21.662322    20.200592    13.733608 
    2050   -193209.85   -193443.88    234.02972    51.048193    2353.9311    98540.745    21.660367    20.193799    13.739061 
    2060   -193209.86   -193440.03    230.17023    50.206335    2359.7335    98540.745    21.660256    20.188202    13.741988 
    2070   -193209.85    -193436.6    226.74175     49.45849    2356.7676    98540.745    21.662242    20.183534     13.74234 
    2080   -193209.85    -193437.7    227.85129    49.700511    2348.2741    98540.745    21.666559    20.179519    13.739943 
    2090   -193209.84   -193440.95    231.10935    50.411182    2335.2981    98540.745    21.673309    20.175948    13.734645 
    2100   -193209.83    -193443.2    233.37103    50.904514    2319.7354    98540.745    21.682471    20.172733    13.726341 
    2110   -193209.83   -193445.32    235.48826    51.366341    2306.0351    98540.745    21.693998    20.169939    13.714864 
    2120   -193209.83   -193448.96    239.13207    52.161153    2299.6562    98540.745    21.707852    20.167787    13.699979 
    2130   -193209.83   -193454.28    244.44617    53.320302    2308.3647    98540.745    21.723905    20.166589    13.681575 
    2140   -193209.84   -193459.78    249.94522    54.519794    2341.1982    98540.745     21.74172    20.166546    13.660104 
    2150   -193209.85   -193464.52    254.66858    55.550084    2378.5205    98540.745    21.760458    20.167484    13.636774 
    2160   -193209.87   -193467.81    257.94057    56.263795    2398.0772    98540.745     21.77944    20.169085    13.612713 
    2170   -193209.87   -193469.37    259.50284    56.604567    2401.3071    98540.745    21.798639    20.171259    13.588179 
    2180   -193209.84   -193471.76    261.92152    57.132147    2406.6223    98540.745    21.818426    20.174047    13.562875 
    2190   -193209.83   -193475.54    265.70812    57.958107    2412.0227    98540.745     21.83886    20.177266    13.536915 
    2200   -193209.82   -193475.67    265.85278    57.989661     2401.004    98540.745    21.859539    20.180477    13.511045 
    2210   -193209.84   -193472.77    262.92747    57.351573    2372.6438    98540.745    21.880203    20.183365    13.485785 
    2220   -193209.85   -193471.46    261.60962    57.064114    2354.0242    98540.745    21.900994    20.185896    13.461029 
    2230   -193209.85   -193473.18    263.32785    57.438905    2344.5855    98540.745    21.921868    20.188114    13.436747 
    2240   -193209.85   -193476.54    266.68104    58.170327     2342.042    98540.745    21.942571    20.190191    13.412981 
    2250   -193209.86   -193480.58    270.71817    59.050934     2346.331    98540.745    21.962809    20.192388    13.389754 
    2260   -193209.88   -193483.45     273.5729    59.673628    2355.2161    98540.745    21.982365    20.194868    13.367066 
    2270   -193209.89   -193483.12    273.22796    59.598387    2363.0484    98540.745    22.001145    20.197661     13.34491 
    2280   -193209.89   -193482.05     272.1608     59.36561    2363.7479    98540.745    22.019189    20.200649     13.32328 
    2290   -193209.89   -193484.22    274.32989    59.838747    2354.6817    98540.745    22.036675    20.203547    13.302242 
    2300   -193209.89   -193486.76    276.87198    60.393246    2337.5212    98540.745    22.053854    20.205954    13.282052 
    2310   -193209.87   -193485.76    275.88894    60.178817    2317.4111    98540.745    22.070762    20.207485    13.263073 
    2320   -193209.87   -193483.22    273.35375    59.625825    2299.6991    98540.745    22.087222    20.207898     13.24568 
    2330   -193209.87   -193482.55    272.68174    59.479242    2286.6484    98540.745    22.103001    20.207153    13.230068 
    2340   -193209.88   -193482.12    272.24655    59.384314    2278.8419    98540.745    22.117891    20.205481    13.216144 
    2350   -193209.88   -193481.15     271.2751    59.172416    2276.5747    98540.745     22.13162    20.203285    13.203627 
    2360   -193209.89   -193483.22    273.33581    59.621911    2280.9692    98540.745     22.14398    20.200825    13.192357 
    2370   -193209.88   -193488.03    278.15354    60.672788    2291.0606    98540.745     22.15485    20.198132    13.182419 
    2380   -193209.88   -193489.39    279.50233    60.966996    2303.2711    98540.745    22.164147    20.194968    13.174219 
    2390   -193209.87   -193484.52    274.64505    59.907492    2309.0199    98540.745     22.17177    20.190793    13.168582 
    2400   -193209.87    -193482.5    272.63243    59.468484    2300.7265    98540.745    22.177621    20.184966    13.166419 
    2410   -193209.87   -193487.45    277.58693    60.549195    2279.0685    98540.745    22.181815     20.17726    13.168076 
    2420   -193209.86   -193491.98     282.1113    61.536082    2252.5319    98540.745    22.184832     20.16792    13.173131 
    2430   -193209.86   -193491.57    281.71621    61.449903    2228.9666    98540.745    22.187156    20.157452    13.180866 
    2440   -193209.85   -193488.95    279.09885    60.878985    2209.8301    98540.745    22.188895    20.146373    13.190702 
    2450   -193209.84   -193488.18    278.34307    60.714131    2195.5778    98540.745    22.189783    20.134998    13.202269 
    2460   -193209.86   -193492.01    282.14814    61.544118    2189.6333    98540.745     22.18947    20.123412    13.215473 
    2470   -193209.87   -193498.93    289.06665    63.053232    2192.4768    98540.745     22.18775    20.111453    13.230555 
    2480   -193209.88   -193505.48    295.60821    64.480122    2198.1666    98540.745    22.184632    20.098814    13.247894 
    2490   -193209.89   -193507.61    297.72221    64.941243    2200.7325    98540.745    22.180463    20.085255     13.26764 
    2500   -193209.87    -193504.3    294.42968    64.223054    2198.8185    98540.745     22.17576    20.070693    13.289459 
    2510   -193209.88   -193503.04    293.15658    63.945356    2192.9306    98540.745    22.170958    20.055166     13.31283 
    2520   -193209.91   -193508.88    298.97903    65.215389    2181.3802    98540.745    22.166206     20.03878    13.337321 
    2530    -193209.9   -193514.32    304.41644    66.401435    2162.2113    98540.745    22.161359     20.02171    13.362618 
    2540   -193209.88   -193511.75    301.86452    65.844791    2137.9292    98540.745    22.156105    20.004245    13.388502 
    2550   -193209.87   -193504.98    295.10629     64.37064    2116.2112    98540.745    22.150128    19.986684    13.414848 
    2560   -193209.86   -193501.35    291.48518     63.58078    2103.5847    98540.745    22.143282    19.969171    13.441589 
    2570   -193209.87   -193503.92    294.05805    64.141992    2102.5621    98540.745    22.135591    19.951732    13.468704 
    2580   -193209.88   -193509.62    299.74006    65.381391    2110.9426    98540.745    22.127227    19.934286    13.496204 
    2590   -193209.89   -193511.89     302.0006    65.874476    2123.0134    98540.745    22.118486    19.916645    13.524111 
    2600    -193209.9    -193507.6    297.69865    64.936105    2133.7043    98540.745    22.109683    19.898629    13.552421 
    2610   -193209.91   -193501.38    291.47186    63.577873    2143.3532    98540.745    22.101015    19.880183    13.581093 
    2620   -193209.88    -193501.9    292.02403    63.698317    2145.4811    98540.745    22.092415    19.861274      13.6102 
    2630    -193209.9   -193507.08    297.18009    64.822991     2116.576    98540.745    22.083773    19.841965    13.639724 
    2640   -193209.88   -193506.97    297.08458    64.802159    2076.6418    98540.745    22.075386    19.822684    13.668904 
    2650   -193209.86   -193499.23    289.36901    63.119185    2038.4697    98540.745    22.067602    19.803892    13.696885 
    2660   -193209.85   -193488.39    278.54462    60.758093    2014.8527    98540.745    22.060533    19.785868    13.723229 
    2670   -193209.84   -193480.59    270.75205    59.058324     2001.652    98540.745    22.054063     19.76869    13.747975 
    2680   -193209.85   -193478.89    269.04341    58.685623    1987.7839    98540.745    22.048171    19.752439     13.77115 
    2690   -193209.86   -193479.87    270.01396    58.897327    1980.7608    98540.745    22.043182    19.737416    13.792282 
    2700   -193209.87   -193475.91    266.03693    58.029828    1988.0312    98540.745    22.039585    19.723958      13.8107 
    2710   -193209.88   -193463.64    253.76679    55.353381    1998.2458    98540.745    22.037759     19.71215    13.826044 
    2720   -193209.87   -193453.17     243.2934    53.068851    2000.3007    98540.745    22.037867    19.701896    13.838262 
    2730   -193209.87   -193454.26    244.38826     53.30767    1992.9529    98540.745    22.039922    19.693063    13.847408 
    2740   -193209.87   -193458.37    248.50327    54.205266    1977.3372    98540.745    22.043834    19.685537     13.85354 
    2750   -193209.86   -193455.33    245.47098     53.54384    1956.5827    98540.745    22.049426     19.67927    13.856688 
    2760   -193209.85    -193447.4    237.55521    51.817197    1937.8177    98540.745    22.056463    19.674313    13.856793 
    2770   -193209.84   -193441.87    232.03448    50.612978    1927.3818    98540.745    22.064776    19.670807    13.853722 
    2780   -193209.84   -193442.97    233.12265    50.850338    1929.9369    98540.745    22.074294    19.668945    13.847337 
    2790   -193209.85      -193450    240.14472    52.382039    1946.0468    98540.745    22.085013    19.668888    13.837599 
    2800   -193209.87   -193457.06    247.18934    53.918662    1971.8265    98540.745    22.096976    19.670703    13.824589 
    2810   -193209.89   -193456.95     247.0647    53.891475    1996.5932    98540.745    22.110261    19.674375    13.808454 
    2820   -193209.89    -193451.8    241.90563    52.766142    2010.4341    98540.745    22.124959    19.679849    13.789324 
    2830    -193209.9   -193453.61    243.71219    53.160201    2027.7525    98540.745    22.141131    19.687054    13.767303 
    2840    -193209.9   -193460.88    250.97985    54.745473    2067.7196    98540.745    22.158417    19.695449    13.743284 
    2850   -193209.89   -193464.08    254.19502     55.44679    2061.9725    98540.745    22.175952    19.703979    13.719035 
    2860   -193209.88   -193461.99    252.11224    54.992479    2047.1698    98540.745    22.193409    19.712282    13.695119 
    2870   -193209.88   -193457.39     247.5141    53.989501    2034.8321    98540.745    22.210703    19.720383    13.671464 
    2880   -193209.88   -193453.04    243.15517      53.0387    2029.5385    98540.745     22.22787    19.728482    13.647748 
    2890   -193209.89   -193452.29    242.40155    52.874315    2042.5799    98540.745    22.245021    19.736801    13.623649 
    2900   -193209.86   -193455.06    245.19651    53.483972    2067.7733    98540.745    22.262008    19.745224    13.599459 
    2910   -193209.86   -193455.98    246.11665    53.684678    2082.4597    98540.745    22.278431    19.753369    13.575946 
    2920   -193209.84   -193455.01    245.16901    53.477973    2079.1209    98540.745    22.294033    19.761214    13.553329 
    2930   -193209.87   -193455.66    245.79299    53.614079    2079.9262    98540.745    22.308847    19.769101    13.531201 
    2940   -193209.91   -193457.17    247.26545    53.935264    2068.1118    98540.745    22.323025    19.777011    13.509554 
    2950    -193209.9   -193454.92     245.0246    53.446473    2050.2077    98540.745    22.336998    19.784736    13.488426 
    2960   -193209.88   -193448.99    239.11309    52.157013    2033.5235    98540.745    22.351127    19.791891    13.468027 
    2970   -193209.87   -193446.21    236.34264    51.552704    2020.6861    98540.745    22.365466    19.798109    13.448722 
    2980   -193209.87   -193450.89    241.02388    52.573809    2014.9856    98540.745    22.379977    19.803272    13.430691 
    2990   -193209.85   -193457.38    247.52908    53.992767    2021.4435    98540.745    22.394622    19.807578    13.413801 
    3000   -193209.83   -193455.05    245.22557    53.490309     2034.371    98540.745    22.409127    19.811409     13.39787 
    3010   -193209.78   -193446.34    236.55713    51.599489    2044.5005    98540.745    22.422968    19.815092    13.382876 
    3020   -193209.82    -193446.2    236.37637     51.56006    2047.9758    98540.745    22.435764    19.818695    13.368803 
    3030   -193209.88   -193456.69    246.81473    53.836949    2041.6103    98540.745    22.447449    19.822113    13.355565 
    3040    -193209.9   -193461.98    252.08234    54.985957    2035.6403    98540.745    22.458242    19.825052    13.343125 
    3050   -193209.89   -193453.21    243.31846    53.074318    2038.9336    98540.745    22.468367    19.826826    13.332133 
    3060   -193209.87   -193445.74     235.8653    51.448582    2036.6257    98540.745    22.477575    19.826505    13.324203 
    3070   -193209.89   -193455.04    245.15626    53.475191    2019.9885    98540.745     22.48574    19.823741    13.320371 
    3080    -193209.9   -193462.99    253.08344    55.204324    2003.2526    98540.745    22.493356    19.819337    13.319943 
    3090   -193209.89   -193457.45    247.55855    53.999196     1999.709    98540.745    22.500878     19.81444    13.321688 
    3100   -193209.89   -193450.52    240.62911    52.487697    1997.4463    98540.745    22.508076    19.809644    13.325041 
    3110   -193209.89   -193456.46    246.57162    53.783919    1989.6965    98540.745     22.51444    19.805025    13.329783 
    3120   -193209.91   -193469.11    259.20608    56.539836    1981.2536    98540.745    22.519698    19.800439     13.33572 
    3130    -193209.9    -193472.4    262.50598    57.259633    1984.9857    98540.745    22.523756    19.795461    13.342908 
    3140   -193209.88   -193465.94    256.06678     55.85507    1993.9793    98540.745    22.526529    19.789108    13.352257 
    3150   -193209.88   -193469.86     259.9837    56.709456    1989.7857    98540.745    22.528015    19.780456    13.364946 
    3160   -193209.89   -193480.44    270.54556    59.013282    1975.0247    98540.745    22.528707    19.769666     13.38079 
    3170   -193209.85   -193482.09    272.23423    59.381628    1969.3109    98540.745    22.529452    19.757716     13.39859 
    3180   -193209.84   -193479.78    269.94207    58.881646    1970.5549    98540.745    22.530623    19.745294    13.417644 
    3190   -193209.84   -193481.43    271.58842    59.240759    1961.7655    98540.745    22.532018    19.732605    13.437797 
    3200   -193209.84   -193485.09    275.24686    60.038762    1945.5519    98540.745    22.533148    19.719702    13.458796 
    3210   -193209.88   -193486.81    276.92813    60.405494    1926.5081    98540.745    22.533549    19.706454    13.480372 
    3220   -193209.87   -193487.48    277.61138    60.554529    1909.6843    98540.745    22.533008    19.692681    13.502342 
    3230   -193209.87   -193490.61    280.74129    61.237247    1904.0636    98540.745    22.531525    19.678305    13.524538 
    3240   -193209.87   -193495.92    286.04882    62.394961    1909.2925    98540.745    22.529219    19.663327    13.546882 
    3250   -193209.88   -193497.94    288.06134    62.833947    1919.3134    98540.745    22.526401    19.647827     13.56944 
    3260   -193209.88   -193494.33    284.45409    62.047107    1927.8412    98540.745    22.523557    19.632004    13.592425 
    3270   -193209.88   -193493.44    283.55628    61.851271    1933.8857    98540.745    22.521087    19.616012    13.616088 
    3280   -193209.89   -193500.49    290.60374    63.388512    1934.2381    98540.745    22.519094    19.599884    13.640623 
    3290    -193209.9   -193508.34    298.44376    65.098633    1930.3399    98540.745    22.517487    19.583647     13.66601 
    3300    -193209.9   -193506.98    297.07667    64.800432     1901.967    98540.745    22.516025    19.567314    13.692017 
    3310    -193209.9   -193498.24    288.34292    62.895368    1893.2359    98540.745    22.514713     19.55133     13.71768 
    3320   -193209.89   -193493.16    283.26898    61.788603    1886.7059    98540.745    22.513516    19.535755    13.742763 
    3330   -193209.89   -193492.83    282.94173    61.717222    1881.6124    98540.745    22.512355    19.520441    13.767432 
    3340   -193209.89    -193495.1    285.20521    62.210948    1882.0554    98540.745    22.511204    19.505348    13.791707 
    3350    -193209.9    -193496.8    286.89722    62.580021    1888.8209    98540.745    22.510049    19.490485    13.815554 
    3360   -193209.91   -193495.11    285.20081    62.209987    1899.9751    98540.745    22.508884    19.475876    13.838935 
    3370   -193209.91   -193491.17    281.25701    61.349739    1912.2308    98540.745    22.507712    19.461526    13.861863 
    3380   -193209.92   -193491.37    281.45323     61.39254    1921.5926    98540.745     22.50654    19.447394    13.884433 
    3390   -193209.92   -193497.93    288.01178    62.823137    1925.6378    98540.745    22.505376     19.43341    13.906775 
    3400    -193209.9   -193502.95    293.04699    63.921452    1924.2279    98540.745     22.50421    19.419499    13.929008 
    3410   -193209.89    -193499.7     289.8142    63.216293    1919.2114    98540.745    22.503027    19.405606    13.951202 
    3420   -193209.84   -193490.85    281.00504    61.294777    1916.4196    98540.745    22.501823    19.391709    13.973368 
    3430   -193209.84   -193484.11    274.27603    59.826998    1917.6217    98540.745      22.5006    19.377807    13.995488 
    3440   -193209.83   -193484.36    274.52483    59.881269    1917.1026    98540.745    22.499362    19.363904    14.017549 
    3450   -193209.84   -193489.05     279.2145    60.904213    1914.0123    98540.745    22.498111        19.35    14.039546 
    3460   -193209.88   -193491.85    281.96833    61.504896     1924.118    98540.745    22.496844    19.336095    14.061487 
    3470   -193209.89    -193489.9    280.00923    61.077564    1942.9626    98540.745    22.495562    19.322187    14.083379 
    3480    -193209.9    -193487.1    277.20153     60.46513    1955.7407    98540.745    22.494265    19.308278     14.10523 
    3490   -193209.93   -193488.58    278.65063    60.781217    1962.4716    98540.745    22.492955    19.294369    14.127044 
    3500   -193209.94   -193491.53    281.59016    61.422408    1963.8625    98540.745    22.491636    19.280461    14.148821 
    3510   -193209.94      -193489    279.06076    60.870678    1961.2927    98540.745    22.490311    19.266556    14.170561 
    3520   -193209.94   -193480.97    271.03577    59.120211    1957.6606    98540.745    22.488983    19.252655    14.192258 
    3530   -193209.93    -193473.8    263.86667    57.556437     1955.042    98540.745    22.487656    19.238757    14.213905 
    3540   -193209.93   -193472.54    262.61157    57.282665    1955.0586    98540.745     22.48633    19.224861    14.235497 
    3550   -193209.93   -193476.36    266.43046    58.115668    1958.7046    98540.745    22.485004    19.210967    14.257034 
    3560   -193209.93   -193480.59    270.65185    59.036468    1966.6894    98540.745    22.483679    19.197075    14.278521 
    3570   -193209.94   -193480.84    270.90229    59.091094    1978.3192    98540.745    22.482352    19.183187    14.299964 
    3580   -193209.94   -193476.76    266.82425    58.201564    1990.9583    98540.745    22.481022    19.169304    14.321369 
    3590   -193209.94   -193474.63    264.69158    57.736371    2001.6453    98540.745    22.479688    19.155424    14.342737 
    3600   -193209.94   -193479.53    269.59309    58.805523    2007.3394    98540.745    22.478351    19.141548    14.364066 
    3610   -193209.93   -193484.89     274.9588     59.97593    2005.5616    98540.745    22.477011    19.127673    14.385352 
    3620   -193209.92   -193482.14    272.22634    59.379907    1999.7085    98540.745    22.475672    19.113797    14.406589 
    3630    -193209.9   -193472.94    263.03252    57.374485    1997.6912    98540.745    22.474334    19.099919    14.427771 
    3640    -193209.9   -193466.17    256.27116    55.899652    1996.3527    98540.745    22.472998    19.086037    14.448893 
    3650    -193209.9   -193467.18    257.28437     56.12066    1992.0065    98540.745    22.471665     19.07215    14.469956 
    3660    -193209.9   -193473.51    263.60509    57.499379    1991.8603    98540.745    22.470335    19.058256    14.490962 
    3670   -193209.91   -193479.69    269.77849    58.845963    2005.6062    98540.745    22.469007    19.044358    14.511916 
    3680   -193209.92   -193479.72    269.79301    58.849132    2027.9912    98540.745     22.46768    19.030455    14.532822 
    3690   -193209.93   -193474.86    264.92445    57.787166    2042.6483    98540.745    22.466352    19.016551    14.553688 
    3700   -193209.94   -193474.21    264.27105    57.644642    2047.0902    98540.745    22.465024    19.002646    14.574517 
    3710   -193209.95   -193478.44    268.49633    58.566291    2043.7415    98540.745    22.463694     18.98874    14.595314 
    3720   -193209.94   -193478.85     268.9037    58.655148    2035.5675    98540.745    22.462363    18.974834     14.61608 
    3730   -193209.93   -193473.25    263.31132      57.4353    2027.1786    98540.745    22.461032    18.960927    14.636817 
    3740   -193209.93   -193466.99    257.06215    56.072187    2021.4006    98540.745    22.459703    18.947018    14.657524 
    3750   -193209.92   -193465.48    255.55063    55.742484    2020.2076    98540.745    22.458375    18.933108      14.6782 
    3760   -193209.93   -193469.87    259.93978    56.699877    2024.4434    98540.745     22.45705    18.919197    14.698846 
    3770   -193209.93   -193476.86    266.92644    58.223854    2034.0401    98540.745    22.455727    18.905283    14.719462 
    3780   -193209.94   -193480.92    270.98364     59.10884    2047.3758    98540.745    22.454406    18.891369    14.740051 
    3790   -193209.94    -193478.9    268.95024      58.6653    2061.0841    98540.745    22.453085    18.877454    14.760612 
    3800   -193209.94   -193475.99    266.04774    58.032187    2070.5864    98540.745    22.451766    18.863538    14.781147 
    3810   -193209.93   -193480.08    270.14186    58.925226    2072.7679    98540.745    22.450447    18.849622    14.801655 
    3820   -193209.93   -193486.26    276.33264      60.2756    2064.2646    98540.745    22.449129    18.835704    14.822136 
    3830   -193209.91   -193484.79    274.87912     59.95855    2047.9406    98540.745    22.447814    18.821785    14.842588 
    3840    -193209.9   -193477.15    267.25227    58.294926    2039.5035    98540.745      22.4465    18.807865    14.863012 
    3850   -193209.89   -193471.48    261.58797    57.059392    2039.9646    98540.745    22.445187    18.793943    14.883407 
    3860    -193209.9   -193472.83    262.93168     57.35249    2044.2713    98540.745    22.443877     18.78002    14.903776 
    3870    -193209.9   -193480.85    270.94181    59.099716    2051.6535    98540.745    22.442568    18.766096    14.924118 
    3880   -193209.92   -193489.12    279.20072    60.901206    2065.9086    98540.745    22.441261    18.752171    14.944435 
    3890   -193209.93    -193489.6    279.67395    61.004431    2081.9787    98540.745    22.439955    18.738245    14.964729 
    3900   -193209.94    -193483.8    273.86483    59.737304    2089.1884    98540.745    22.438649    18.724319    14.985001 
    3910   -193209.94   -193481.71    271.76831    59.279997    2087.9799    98540.745    22.437344    18.710391    15.005252 
    3920   -193209.94   -193485.42    275.47242    60.087964     2081.144    98540.745    22.436039    18.696463    15.025483 
    3930   -193209.94   -193487.02    277.07955    60.438522    2072.2774    98540.745    22.434734    18.682534    15.045698 
    3940   -193209.93   -193483.18    273.24965    59.603117     2065.324    98540.745    22.433429    18.668605    15.065898 
    3950   -193209.93   -193477.36     267.4323    58.334197    2063.0228    98540.745    22.432124    18.654676    15.086082 
    3960   -193209.93   -193474.56    264.63012    57.722966    2066.1072    98540.745    22.430818    18.640746    15.106252 
    3970   -193209.93   -193477.59    267.65488    58.382748    2073.9367    98540.745    22.429512    18.626816    15.126408 
    3980   -193209.94   -193484.55    274.61031    59.899914    2085.3337    98540.745    22.428207    18.612886    15.146551 
    3990   -193209.95   -193489.39    279.44658    60.954836    2098.1374    98540.745    22.426901    18.598956     15.16668 
    4000   -193209.95   -193487.67    277.72468    60.579242    2109.2224    98540.745    22.425595    18.585025    15.186796 
    4010   -193209.94   -193483.73     273.7966    59.722422    2114.6538    98540.745    22.424288    18.571094    15.206898 
    4020   -193209.93   -193485.24    275.30988    60.052508    2112.5114    98540.745    22.422982    18.557162    15.226987 
    4030   -193209.92   -193488.92    278.99819     60.85703    2101.5965    98540.745    22.421676     18.54323    15.247061 
    4040   -193209.91   -193487.21    277.30396    60.487472    2087.9907    98540.745    22.420369    18.529298    15.267122 
    4050    -193209.9    -193480.7    270.80435    59.069731    2086.7153    98540.745    22.419063    18.515365     15.28717 
    4060    -193209.9   -193474.21    264.31375    57.653956    2099.8631    98540.745    22.417757    18.501432    15.307205 
    4070    -193209.9   -193473.65    263.74675     57.53028    2110.4537    98540.745     22.41645    18.487499    15.327229 
    4080   -193209.91   -193480.75    270.84452    59.078493    2113.3457    98540.745    22.415144    18.473566     15.34724 
    4090   -193209.92   -193487.84    277.92065    60.621988    2120.4309    98540.745    22.413837    18.459632    15.367241 
    4100   -193209.93   -193487.49    277.56257    60.543881    2132.1248    98540.745     22.41253    18.445698    15.387231 
    4110   -193209.94   -193480.15    270.21154    58.940424    2139.5183    98540.745    22.411224    18.431764    15.407211 
    4120   -193209.94   -193474.47     264.5338    57.701956    2141.0347    98540.745    22.409917     18.41783     15.42718 
    4130   -193209.94   -193475.38    265.43913    57.899432    2139.1772    98540.745     22.40861    18.403895     15.44714 
    4140   -193209.94    -193477.3    267.35993     58.31841    2136.1288    98540.745    22.407303    18.389961    15.467091 
    4150   -193209.94   -193474.67    264.73347    57.745509    2134.1424    98540.745    22.405996    18.376026    15.487034 
    4160   -193209.93   -193468.37    258.43448     56.37153    2135.1221    98540.745    22.404689    18.362091    15.506969 
    4170   -193209.93   -193463.27    253.34106    55.260516    2139.3609    98540.745    22.403382    18.348156    15.526897 
    4180   -193209.94   -193463.89    253.95171    55.393718    2146.3515    98540.745    22.402075    18.334221    15.546818 
    4190   -193209.94   -193469.59    259.65169    56.637035    2155.3006    98540.745    22.400768    18.320286    15.566732 
    4200   -193209.94    -193474.5    264.56072    57.707828    2164.8883    98540.745     22.39946    18.306351    15.586639 
    4210   -193209.94   -193473.68    263.73894    57.528576    2173.5262    98540.745    22.398153    18.292416    15.606539 
    4220   -193209.93    -193469.2    259.27174    56.554158    2178.9125    98540.745    22.396846    18.278481    15.626432 
    4230   -193209.92   -193467.52    257.59545    56.188515    2179.2264    98540.745    22.395539    18.264545    15.646318 
    4240   -193209.92   -193469.02    259.10092    56.516898    2174.3237    98540.745    22.394231     18.25061    15.666196 
    4250   -193209.91   -193468.31    258.40054    56.364127     2168.749    98540.745    22.392924    18.236674    15.686067 
    4260    -193209.9   -193462.26    252.36179    55.046912    2172.5387    98540.745    22.391617    18.222739    15.705931 
    4270    -193209.9   -193455.38    245.48604    53.547127    2174.4896    98540.745    22.390309    18.208803    15.725787 
    4280    -193209.9   -193454.76    244.85938    53.410434    2173.8862    98540.745    22.389002    18.194867    15.745636 
    4290   -193209.91   -193460.64    250.72985    54.690942     2177.826    98540.745    22.387695    18.180931    15.765478 
    4300   -193209.92   -193467.78    257.86114    56.246468    2188.4719    98540.745    22.386387    18.166995    15.785314 
    4310   -193209.93   -193468.93    258.99822    56.494497    2201.7132    98540.745     22.38508    18.153059    15.805144 
    4320   -193209.94   -193461.86    251.91655    54.949793    2210.9935    98540.745    22.383773    18.139123    15.824968 
    4330   -193209.94    -193454.6    244.65977    53.366893    2213.4518    98540.745    22.382465    18.125187    15.844788 
    4340   -193209.95   -193455.08    245.13486    53.470524    2210.7903    98540.745    22.381158     18.11125    15.864602 
    4350   -193209.94   -193458.79    248.84446    54.279689    2205.0605    98540.745    22.379851    18.097314    15.884413 
    4360   -193209.94   -193458.25    248.31644    54.164512    2198.7505    98540.745    22.378543    18.083378    15.904219 
    4370   -193209.93   -193453.28    243.34849    53.080868    2194.8159    98540.745    22.377236    18.069442    15.924021 
    4380   -193209.93    -193448.6    238.67155    52.060701    2194.7228    98540.745    22.375929    18.055506    15.943819 
    4390   -193209.93   -193448.98    239.05028    52.143313     2198.423    98540.745    22.374622     18.04157    15.963614 
    4400   -193209.93   -193455.19    245.25855    53.497503    2205.3279    98540.745    22.373314    18.027634    15.983405 
    4410   -193209.94   -193462.63    252.69674    55.119974    2214.2473    98540.745    22.372007    18.013698    16.003192 
    4420   -193209.94   -193465.04     255.0969    55.643514    2223.2864    98540.745      22.3707    17.999762    16.022976 
    4430   -193209.93   -193461.11    251.17745    54.788576    2229.2334    98540.745    22.369392    17.985826    16.042755 
    4440   -193209.92   -193457.12    247.19515    53.919929    2234.1813    98540.745    22.368085     17.97189    16.062531 
    4450   -193209.91   -193458.43    248.51649    54.208148    2229.8485    98540.745    22.366778    17.957954    16.082303 
    4460    -193209.9   -193460.03    250.12539    54.559092    2197.1313    98540.745    22.365471    17.944018    16.102071 
    4470   -193209.89   -193456.67    246.77265    53.827771    2184.5465    98540.745    22.364163    17.930082    16.121834 
    4480    -193209.9   -193454.28    244.38497    53.306953     2191.868    98540.745    22.362856    17.916147    16.141594 
    4490    -193209.9   -193455.15    245.24355    53.494233    2206.3114    98540.745    22.361549    17.902211    16.161349 
    4500   -193209.92   -193460.85    250.93308    54.735272    2220.1521    98540.745    22.360242    17.888276    16.181101 
    4510   -193209.93    -193468.8    258.86284    56.464966    2230.7608    98540.745    22.358935     17.87434    16.200849 
    4520   -193209.94   -193470.79    260.84274    56.896835    2235.6229    98540.745    22.357628    17.860405    16.220594 
    4530   -193209.94   -193464.77    254.82941    55.585167    2232.3661    98540.745    22.356321    17.846469    16.240336 
    4540   -193209.94   -193459.41    249.46632    54.415331    2222.8536    98540.745    22.355013    17.832534    16.260076 
    4550   -193209.94   -193460.76    250.82353    54.711376    2211.1652    98540.745    22.353706    17.818598    16.279813 
    4560   -193209.93   -193464.96    255.02643    55.628141    2200.4238    98540.745    22.352399    17.804663    16.299548 
    4570   -193209.92    -193467.2    257.27807    56.119286    2193.9616    98540.745    22.351092    17.790728    16.319281 
    4580   -193209.92   -193466.74    256.81997    56.019361    2194.5651    98540.745    22.349785    17.776792    16.339011 
    4590   -193209.93   -193464.78    254.85062    55.589793    2201.3831    98540.745    22.348478    17.762857     16.35874 
    4600   -193209.93   -193464.72    254.78287    55.575015    2211.5302    98540.745    22.347171    17.748922    16.378466 
    4610   -193209.94   -193470.49    260.55023    56.833031    2222.2927    98540.745    22.345864    17.734986    16.398191 
    4620   -193209.94      -193479    269.06223    58.689728    2229.6612    98540.745    22.344557    17.721051    16.417913 
    4630   -193209.94   -193481.16    271.22468    59.161417    2232.2673    98540.745     22.34325    17.707116    16.437633 
    4640   -193209.92   -193475.22    265.30317    57.869777    2227.7455    98540.745    22.341943     17.69318    16.457351 
    4650   -193209.91   -193470.33    260.41961     56.80454    2209.1058    98540.745    22.340637    17.679245    16.477067 
    4660    -193209.9   -193470.04    260.14222    56.744034    2187.9911    98540.745     22.33933     17.66531    16.496781 
    4670   -193209.89   -193472.48    262.59197     57.27839    2176.4486    98540.745    22.338023    17.651374    16.516493 
    4680    -193209.9   -193477.42    267.52568    58.354566    2180.2399    98540.745    22.336716    17.637439    16.536202 
    4690   -193209.91   -193481.56    271.64798     59.25375    2200.1711    98540.745    22.335409    17.623504     16.55591 
    4700   -193209.92   -193480.28    270.35516    58.971751    2226.5676    98540.745    22.334102    17.609568    16.575615 
    4710   -193209.94   -193479.76    269.82205    58.855465    2239.3213    98540.745    22.332795    17.595633    16.595319 
    4720   -193209.95    -193484.9    274.95166    59.974371    2237.8054    98540.745    22.331488    17.581698    16.615021 
    4730   -193209.95   -193487.46    277.51561    60.533639    2228.1599    98540.745    22.330181    17.567762    16.634722 
    4740   -193209.94   -193482.96    273.02097    59.553236    2214.2789    98540.745    22.328874    17.553827    16.654421 
    4750   -193209.93   -193476.72    266.79126    58.194369    2201.3152    98540.745    22.327567    17.539891    16.674118 
    4760   -193209.92    -193474.4    264.48286    57.690845     2192.588    98540.745     22.32626    17.525956    16.693815 
    4770   -193209.92   -193477.29    267.36927    58.320447    2190.3867    98540.745    22.324953    17.512021     16.71351 
    4780   -193209.92    -193483.3    273.38083    59.631732    2196.4511    98540.745    22.323647    17.498085    16.733203 
    4790   -193209.93   -193488.14    278.20811    60.684691    2210.2397    98540.745     22.32234     17.48415    16.752895 
    4800   -193209.94   -193487.12    277.17715    60.459812    2228.2166    98540.745    22.321033    17.470215    16.772586 
    4810   -193209.94   -193481.91    271.97385    59.324831    2244.5768    98540.745    22.319726    17.456279    16.792275 
    4820   -193209.94   -193482.53    272.59701    59.460758    2257.4612    98540.745    22.318419    17.442344    16.811963 
    4830   -193209.93    -193490.1    280.16328    61.111167    2255.8164    98540.745    22.317112    17.428409    16.831649 
    4840   -193209.92   -193491.45    281.52625    61.408468    2226.7544    98540.745    22.315805    17.414474    16.851333 
    4850    -193209.9   -193483.11    273.20814    59.594063    2210.1467    98540.745    22.314498    17.400538    16.871015 
    4860   -193209.89    -193475.5    265.61096    57.936913    2204.5142    98540.745    22.313191    17.386603    16.890695 
    4870   -193209.89   -193474.23    264.34178    57.660071    2207.8659    98540.745    22.311885    17.372668    16.910373 
    4880    -193209.9   -193480.02    270.11598    58.919581    2219.6515    98540.745    22.310578    17.358732    16.930049 
    4890   -193209.92   -193488.94    279.02664    60.863235    2239.6263    98540.745    22.309271    17.344797    16.949723 
    4900   -193209.93   -193491.78    281.84876    61.478816    2268.0062    98540.745    22.307964    17.330862    16.969395 
    4910   -193209.94   -193485.33    275.38626    60.069171    2280.9417    98540.745    22.306657    17.316927    16.989065 
    4920   -193209.94   -193480.57    270.62772    59.031204    2278.3497    98540.745     22.30535    17.302992    17.008734 
    4930   -193209.95   -193483.18    273.23382    59.599665    2269.3232    98540.745    22.304043    17.289056      17.0284 
    4940   -193209.94   -193485.11    275.17299    60.022651    2257.0673    98540.745    22.302736    17.275121    17.048066 
    4950   -193209.93   -193481.46    271.53822    59.229809     2246.951    98540.745     22.30143    17.261186    17.067729 
    4960   -193209.92   -193475.52    265.60521    57.935659    2242.8901    98540.745    22.300123    17.247251    17.087391 
    4970   -193209.92   -193472.07    262.15627    57.183353    2248.1822    98540.745    22.298816    17.233316    17.107052 
    4980   -193209.92   -193473.82    263.90049    57.563813    2260.2223    98540.745    22.297509    17.219381    17.126711 
    4990   -193209.93   -193480.31    270.38025    58.977224    2277.5274    98540.745    22.296202    17.205446    17.146368 
    5000   -193209.94   -193486.34     276.4004    60.290382    2297.1737    98540.745    22.294895     17.19151    17.166023 
    5010   -193209.95   -193484.64    274.69453    59.918286    2314.6428    98540.745    22.293588    17.177575    17.185677 
    5020   -193209.93   -193476.52    266.59115    58.150718    2328.2206    98540.745    22.292282     17.16364    17.205328 
    5030   -193209.92   -193475.07    265.14279    57.834792    2318.0344    98540.745    22.290975    17.149705    17.224976 
    5040   -193209.91   -193478.07    268.15135    58.491041    2294.0566    98540.745    22.289668     17.13577    17.244623 
    5050    -193209.9   -193476.56    266.65621    58.164911    2278.5333    98540.745    22.288361    17.121835    17.264266 
    5060   -193209.89   -193473.51    263.61484    57.501507     2276.585    98540.745    22.287054      17.1079    17.283907 
    5070    -193209.9   -193472.19    262.29397    57.213388    2288.2976    98540.745    22.285748    17.093965    17.303545 
    5080   -193209.91   -193471.77    261.86326    57.119439    2310.1401    98540.745    22.284441     17.08003    17.323181 
    5090   -193209.92   -193472.78    262.86027    57.336914    2334.8844    98540.745    22.283134    17.066095    17.342814 
    5100   -193209.94   -193477.48    267.54477    58.358731    2355.5677    98540.745    22.281827     17.05216    17.362445 
    5110   -193209.95    -193480.9    270.95463    59.102513    2362.5798    98540.745    22.280521    17.038225    17.382073 
    5120   -193209.95   -193477.03    267.08301    58.258007     2358.337    98540.745    22.279214    17.024291    17.401699 
    5130   -193209.94   -193470.85    260.91654    56.912933    2348.3902    98540.745    22.277907    17.010356    17.421324 
    5140   -193209.93   -193468.41    258.47949    56.381348    2337.7263    98540.745      22.2766    16.996421    17.440947 
    5150   -193209.92   -193469.03    259.10507    56.517803    2330.1365    98540.745    22.275294    16.982486    17.460568 
    5160   -193209.92   -193470.56    260.63993    56.852598    2329.2588    98540.745    22.273987    16.968551    17.480187 
    5170   -193209.92   -193472.09    262.17478     57.18739    2337.9526    98540.745     22.27268    16.954616    17.499805 
    5180   -193209.93   -193472.15    262.21939     57.19712    2354.6203    98540.745    22.271374    16.940681    17.519421 
    5190   -193209.94   -193470.69    260.75803    56.878358    2375.0943    98540.745    22.270067    16.926747    17.539035 
    5200   -193209.94   -193472.07    262.12964    57.177545    2394.6026    98540.745     22.26876    16.912812    17.558648 
    5210   -193209.94   -193477.42    267.47306    58.343087    2412.7675    98540.745    22.267454    16.898877    17.578259 
    5220   -193209.93   -193479.63    269.69292    58.827299     2414.813    98540.745    22.266147    16.884942    17.597868 
    5230   -193209.92   -193474.75    264.83449    57.767544    2388.1558    98540.745     22.26484    16.871007    17.617475 
    5240    -193209.9   -193467.61    257.70595    56.212618    2372.7075    98540.745    22.263534    16.857073    17.637079 
    5250   -193209.89   -193464.72     254.8213    55.583397    2364.1592    98540.745    22.262227    16.843138    17.656681 
    5260   -193209.89    -193467.7    257.80761    56.234793    2365.4087    98540.745    22.260921    16.829203    17.676282 
    5270    -193209.9   -193475.17     265.2629    57.860992    2378.7166    98540.745    22.259614    16.815269     17.69588 
    5280   -193209.92   -193481.14    271.21965    59.160321    2402.7374    98540.745    22.258308    16.801334    17.715476 
    5290   -193209.94   -193477.35    267.40628    58.328522    2431.9165    98540.745    22.257001    16.787399    17.735071 
    5300   -193209.94   -193468.43    258.49127    56.383918    2452.7541    98540.745    22.255694    16.773465    17.754664 
    5310   -193209.95   -193471.11       261.16    56.966039    2454.5484    98540.745    22.254388     16.75953    17.774255 
    5320   -193209.95   -193479.75    269.80074    58.850817     2444.796    98540.745    22.253081    16.745595    17.793845 
    5330   -193209.94   -193479.92    269.97834    58.889556    2429.5695    98540.745    22.251775    16.731661    17.813434 
    5340   -193209.92   -193472.94    263.02316    57.372445    2416.3043    98540.745    22.250468    16.717726    17.833021 
    5350   -193209.91   -193466.82    256.90539    56.037993    2409.6055    98540.745    22.249162    16.703792    17.852608 
    5360   -193209.91   -193466.65    256.73672    56.001203    2411.7523    98540.745    22.247856    16.689857    17.872193 
    5370   -193209.91   -193472.93    263.01376    57.370394    2423.3169    98540.745    22.246549    16.675922    17.891777 
    5380   -193209.93    -193481.6    271.67027    59.258613    2443.3684    98540.745    22.245243    16.661988    17.911361 
    5390   -193209.94   -193484.81    274.86883    59.956304    2468.4134    98540.745    22.243936    16.648053    17.930943 
    5400   -193209.95   -193477.44    267.48998    58.346778    2495.7005    98540.745     22.24263    16.634119    17.950524 
    5410   -193209.93    -193470.7    260.77373    56.881783    2522.6745    98540.745    22.241323    16.620184    17.970104 
    5420   -193209.93   -193480.39    270.45601    58.993749    2485.6781    98540.745    22.240017     16.60625    17.989683 
    5430   -193209.91   -193482.52     272.6104    59.463679    2459.2848    98540.745    22.238711    16.592315    18.009261 
    5440    -193209.9   -193477.14    267.24762    58.293914    2445.3191    98540.745    22.237404    16.578381    18.028838 
    5450   -193209.89   -193472.67    262.77379     57.31805    2444.3702    98540.745    22.236098    16.564446    18.048413 
    5460    -193209.9   -193472.81    262.90988    57.347736    2457.2807    98540.745    22.234792    16.550512    18.067988 
    5470   -193209.91   -193476.66    266.74236    58.183701    2480.5369    98540.745    22.233485    16.536577    18.087562 
    5480   -193209.93   -193481.71    271.78075    59.282711    2508.1628    98540.745    22.232179    16.522643    18.107135 
    5490   -193209.95   -193483.85    273.89553    59.744002    2534.7685    98540.745    22.230872    16.508708    18.126707 
    5500   -193209.96   -193479.08    269.11789     58.70187    2549.5938    98540.745    22.229566    16.494774    18.146279 
    5510   -193209.95   -193474.08    264.12819     57.61348     2543.616    98540.745     22.22826    16.480839     18.16585 
    5520   -193209.94   -193475.82     265.8787    57.995315    2529.9045    98540.745    22.226954    16.466905     18.18542 
    5530   -193209.93   -193478.89    268.96643    58.668833    2513.2864    98540.745    22.225647    16.452971     18.20499 
    5540   -193209.91   -193477.96    268.04501    58.467845    2500.5583    98540.745    22.224341    16.439036    18.224559 
    5550    -193209.9   -193475.77    265.86859    57.993109    2498.2236    98540.745    22.223035    16.425102    18.244128 
    5560   -193209.91   -193475.51    265.60763    57.936187    2509.1232    98540.745    22.221728    16.411167    18.263697 
    5570   -193209.92   -193476.42    266.50644    58.132241    2531.0177    98540.745    22.220422    16.397233    18.283264 
    5580   -193209.93   -193477.02    267.09434    58.260478     2558.557    98540.745    22.219116    16.383298    18.302832 
    5590   -193209.94   -193478.24    268.30131    58.523751      2594.13    98540.745    22.217809    16.369364    18.322399 
    5600   -193209.94   -193480.38    270.44164    58.990615    2624.8895    98540.745    22.216503     16.35543    18.341966 
    5608   -193209.94   -193483.43    273.48971    59.655481    2585.7919    98540.745    22.215458    16.344282    18.357619 
Loop time of 870.848 on 1 procs for 5000 steps with 1539 atoms

Performance: 0.050 ns/day, 483.805 hours/ns, 5.742 timesteps/s
99.7% CPU use with 1 MPI tasks x no OpenMP threads

MPI task timing breakdown:
Section |  min time  |  avg time  |  max time  |%varavg| %total
---------------------------------------------------------------
Pair    | 803.9      | 803.9      | 803.9      |   0.0 | 92.31
Bond    | 0.0031183  | 0.0031183  | 0.0031183  |   0.0 |  0.00
Neigh   | 1.3062     | 1.3062     | 1.3062     |   0.0 |  0.15
Comm    | 0.27204    | 0.27204    | 0.27204    |   0.0 |  0.03
Output  | 0.31522    | 0.31522    | 0.31522    |   0.0 |  0.04
Modify  | 65.009     | 65.009     | 65.009     |   0.0 |  7.46
Other   |            | 0.04086    |            |       |  0.00

Nlocal:    1539 ave 1539 max 1539 min
Histogram: 1 0 0 0 0 0 0 0 0 0
Nghost:    5964 ave 5964 max 5964 min
Histogram: 1 0 0 0 0 0 0 0 0 0
Neighs:    312096 ave 312096 max 312096 min
Histogram: 1 0 0 0 0 0 0 0 0 0

Total # of neighbors = 312096
Ave neighs/atom = 202.791
Ave special neighs/atom = 0
Neighbor list builds = 50
Dangerous builds not checked

#Exit the simulation
unfix		qeq
unfix		dyn
unfix		frags
unfix		bonds
clear



Please see the log.cite file for references relevant to this simulation

Total wall time: 0:16:43
