Job ether started on hpc-89-11.cm.cluster at Tue Apr 18 20:03:51 2023
jobid: hpc-89-11-0-643f5a13

  +--------------------------------------------------------------------+
  |  Jaguar version 10.9, release 139                                  |
  |                                                                    |
  |  Copyright Schrodinger, Inc.                                       |
  |  All Rights Reserved.                                              |
  |                                                                    |
  |  The following have contributed to Jaguar (listed alphabetically): |
  |  Mike Beachy, Art Bochevarov, Dale Braden, Yixiang Cao,            |
  |  Alan Chien, Chris Cortis, Rich Friesner, Bill Goddard,            |
  |  Hod Greeley, Tom Hughes, Leif Jacobson, Jean-Marc Langlois,       |
  |  Daniel Levine, Daniel Mainz, Rob Murphy, Dean Philipp,            |
  |  Tom Pollard, Murco Ringnalda, Mark Watson, Haoyu Yu.              |
  |                                                                    |
  |  Use of this program should be acknowledged in publications as:    |
  |                                                                    |
  |  Jaguar, version 10.9, Schrodinger, Inc., New York, NY, 2020.      |
  |                                                                    |
  |  A. D. Bochevarov, E. Harder, T. F. Hughes, J. R. Greenwood,       |
  |  D. A. Braden, D. M. Philipp, D. Rinaldo, M. D. Halls,             |
  |  J. Zhang, R. A. Friesner, "Jaguar: A High-Performance Quantum     |
  |  Chemistry Software Program with Strengths in Life and Materials   |
  |  Sciences", Int. J. Quantum Chem., 2013, 113(18), 2110-2142.       |
  +--------------------------------------------------------------------+
  
  start of program pre
  
  Job name: ether
  Executables used: /groups/wag/programs/Schrodinger_2020_3/jaguar-v10.9/bin/Linux-x86_64
  Temporary files : /central/scratch/musgrave/pkozlows/ether#hpc-89-11-0-643f5a13
  Maestro file (input):  ether.mae
  Maestro file (output): ether.01.mae
  
 Contents of input file: &gen section only
 ----------------Contents start----------------
&gen
basis=6-31G**
igeopt=1
dftname=PBE-D3
ifreq=1
&
 -----------------Contents end-----------------
 
  basis set:             6-31g**                         
  net molecular charge:    0
  multiplicity:            1
  
  Using up to   8 threads per process
  
  number of basis functions....          130
  
 Input geometry:
                                   angstroms
  atom               x                 y                 z
  C1           -4.7433676483     -1.0566656409      4.9246541184 
  C2           -3.4798854115     -0.6284849407      4.7794061595 
  C8           -2.3188096960     -1.0870677643      5.6326802518 
  O9           -1.1223191987     -0.4456047677      5.2218447784 
  H5           -2.5339714678     -0.8553066960      6.6773651937 
  H6           -2.2188948199     -2.1701934117      5.5419594450 
  C12          -0.0182537398     -0.8044380468      5.9437808329 
  C13           1.1891005769     -0.2867247415      5.6792717055 
  H9           -3.2463109473      0.0926705308      4.0090701895 
  H10          -5.5311479123     -0.6906928230      4.2822194974 
  H11          -5.0092704829     -1.7768068825      5.6848443659 
  H12           2.0582054366     -0.5736547764      6.2527364148 
  H13           1.3230251766      0.4320500751      4.8840397421 
  H14          -0.2091117313     -1.5265130666      6.7270355892 
   
  principal moments of inertia:
        amu*angstrom^2:       20.64577      362.10936      379.61339
                g*cm^2: 3.42831110E-39 6.01296660E-38 6.30362790E-38
   
  rotational constants:
               cm^(-1):      0.81651716      0.04655397      0.04440736
                   GHz:     24.47856850      1.39565299      1.33129920
   
  Molecular weight:      84.06 amu
   
  Stoichiometry: C5H8O
  Molecular Point Group: Cs      
	Molecule translated to center of mass 
	Molecule reoriented along symmetry axes
  Point Group used: Cs
  
 
Number of optimization coordinates:    36
Number of independent coordinates:     36
Number of non-redundant coordinates:   36
Number of frozen coordinates:           0
Number of harmonic constraints:         0
 
Number of geometric degrees of freedom:    36
Maximum geometric degrees of freedom:      36
 " " " " " excluding dummy atoms:          36
 
  
 Symmetrized geometry:
                                   angstroms
  atom               x                 y                 z
  C1            0.5824026351      3.0031263246      0.0000000000 
  C2            0.7720691595      1.6746498838      0.0000000000 
  C8           -0.3421463709      0.6523996935      0.0000000000 
  O9            0.1943275116     -0.6606295696      0.0000000000 
  H5           -0.9649952704      0.8076318248      0.8828004564 
  H6           -0.9649952704      0.8076318248     -0.8828004564 
  C12          -0.7483852413     -1.6506832005      0.0000000000 
  C13          -0.4029860478     -2.9454403160      0.0000000000 
  H9            1.7779830981      1.2794576531      0.0000000000 
  H10           1.4213014591      3.6839382319      0.0000000000 
  H11          -0.4102628974      3.4295206002      0.0000000000 
  H12          -1.1518231397     -3.7237570156      0.0000000000 
  H13           0.6354373771     -3.2431712374      0.0000000000 
  H14          -1.7711686862     -1.2968172014      0.0000000000 
   
  nuclear repulsion energy.......     215.325090245 hartrees
 
 Non-default options chosen:
   SCF calculation type: DFT(pbe-d3)                 
   DFT=PBE(X+LC)+PW91 (PBE-D3)
   Geometry will be optimized in redundant internal coordinates
   Vibrational frequencies and related properties will be computed
      from analytic second derivatives
   IR intensities will be computed
   Thermochemical properties will be computed
   Scaling standard convergence criteria by a factor of   1.00
  
 Temporary integer options set:
     73=  2
  
  Peak memory usage:   2759 Mb
  
  end of program pre
   
 Time(pre)  user:        6.9  user+sys:        6.9  wallclock:        2.6
  
  start of program onee
  
  smallest eigenvalue of S:    3.327E-03
  number of canonical orbitals.....          130
  Peak memory usage:   2715 Mb
  
  end of program onee
   
 Time(onee)  user:        2.0  user+sys:        2.0  wallclock:        0.3
  
  start of program hfig
  
  initial wavefunction generated automatically from atomic wavefunctions
 
  Irreducible     Total no   No of occupied orbitals 
  representation  orbitals   Shell_1  Shell_2    ...
  Ap                95         19
  App               35          4
  ------------------------
  Orbital occupation/shell    1.000
 
  Peak memory usage:   2672 Mb
  
  end of program hfig
   
 Time(hfig)  user:        2.5  user+sys:        2.5  wallclock:        0.4
  
  start of program probe
  
  Peak memory usage:   2665 Mb
  
  end of program probe
   
 Time(probe)  user:        2.2  user+sys:        2.2  wallclock:        0.5
  
  start of program grid
  
   grid     grid set  grid #  grid sym
  ------    --------  ------  --------
  coarse        0        0        1
  medium        2        1        2
  fine          0        0        1
  ultrafine     4        2        2
  charge        0        0        1
  gradient      4        2        2
  density       0        0        1
  DFT-fine    -11        3        2
  DFT-med.    -10        4        2
  DFT-grad    -12        5        2
  DFT-der2     -8        6        2
  DFT-cphf     -9        7        2
  LMP2-enrg     4        2        2
  LMP2-grad     2        1        2
  DFT-cphf2   -15        8        2
  PBF-dens      0        0        1
  plotting      0        0        1
  Rel-grad    -17        0        1
  
  number of gridpoints: 
     atom        C1       C2       C8       O9       H5       H6      C12
  grid # 1       50       55       51       70      110        0       54
  grid # 2      179      193      168      254      440        0      187
  grid # 3     2430     2430     2430     2430     4304        0     2430
  grid # 4      756      756      756      756     1192        0      756
  grid # 5     3001     3001     3001     3001     5226        0     3001
  grid # 6     6859     6859     6859    12534    13718        0     6859
  grid # 7      426      426      426      441      744        0      426
  grid # 8      229      229      229      234      382        0      229
   
  number of gridpoints: 
     atom       C13       H9      H10      H11      H12      H13      H14
  grid # 1       50       69       69       68       69       69       67
  grid # 2      180      263      268      267      269      267      256
  grid # 3     2430     2430     2430     2430     2430     2430     2430
  grid # 4      756      756      756      756      756      756      756
  grid # 5     3001     3001     3001     3001     3001     3001     3001
  grid # 6     6859     7413     7413     7413     7413     7413     7413
  grid # 7      426      464      464      464      464      464      464
  grid # 8      229      245      245      245      245      245      245
   
  number of gridpoints: 
     atom     total
  grid # 1      851
  grid # 2     3191
  grid # 3    33464
  grid # 4    10264
  grid # 5    41238
  grid # 6   105025
  grid # 7     6099
  grid # 8     3231
   
  Peak memory usage:   2638 Mb
  
  end of program grid
   
 Time(grid)  user:        3.8  user+sys:        3.8  wallclock:        0.6
  
  start of program rwr
  
  Peak memory usage:   2661 Mb
  
  end of program rwr
   
 Time(rwr)  user:        4.6  user+sys:        4.6  wallclock:        0.7
  
  start of program scf
  
 number of electrons..........         46
 number of alpha electrons....         23
 number of beta electrons.....         23
 number of orbitals, total....        130
 number of doubly-occ'd orbs..         23
 number of open shell orbs....          0
 number of occupied orbitals..         23
 number of virtual orbitals...        107
 number of hamiltonians.......          1
 number of shells.............          1
 SCF type: DFT=PBE(X+LC)+PW91 (PBE-D3)
 Energy computed with NOPS off.
 Convergence Criterion:
    Energy (econv):       1.00E-05
    RMS density (dconv):  5.00E-06
  
       i  u  d  i  g                   
       t  p  i  c  r                                 RMS    maximum
       e  d  i  u  i                       energy  density   DIIS  
       r  t  s  t  d       total energy    change  change    error 
  
etot    1  N  N  5  M    -269.28953930055           7.1E-03  1.3E-01
etot    2  Y  Y  6  M    -269.99397550256  7.0E-01  5.4E-03  5.6E-02
etot    3  Y  Y  6  M    -270.01015688213  1.6E-02  3.3E-03  6.2E-02
etot    4  N  Y  2  U    -270.12513989648  1.1E-01  1.7E-03  2.6E-02
etot    5  Y  Y  6  M    -270.15374828149  2.9E-02  6.2E-04  1.2E-02
etot    6  N  Y  2  U    -270.15705357618  3.3E-03  3.5E-04  3.5E-03
etot    7  Y  Y  6  M    -270.15744386401  3.9E-04  1.6E-04  1.8E-03
etot    8  Y  Y  6  M    -270.15741159683 -3.2E-05  7.3E-05  1.5E-03
etot    9  N  Y  2  U    -270.15755835723  1.5E-04  1.7E-05  2.5E-04
etot   10  N  Y  2  U    -270.15756063482  2.3E-06  4.9E-06  5.7E-05
etot   11  N  N  2  U    -270.15756083905  2.0E-07  0.0E+00  0.0E+00
 
  Computing the dispersion energy correction and its gradients...
  
  
 Energy components, in hartrees:
   (A)  Nuclear repulsion............     215.32509024467
   (E)  Total one-electron terms.....    -791.44588287121
   (I)  Total two-electron terms.....     305.96323178750
   (J)    Coulomb....................     344.24278316775
   (K)    Exchange+Correlation.......     -38.27955138026
   (L)  Electronic energy............    -485.48265108371  (E+I)
   (N0) D3 correction................      -0.00389442504
   (N)  Total energy.................    -270.16145526408  (A+L+N0)
   (O)  Gas phase energy.............    -270.16145526408
  
 SCFE: SCF energy: DFT(pbe-d3)      -270.16145526408 hartrees   iterations:  11
  
 
 HOMO energy:    -0.18248
 LUMO energy:    -0.02748
 
  Orbital energies (hartrees)/symmetry label: 
   -18.80059 Ap         -9.95522 Ap         -9.94437 Ap         -9.90832 Ap     
    -9.89536 Ap         -9.87509 Ap         -0.97257 Ap         -0.72237 Ap     
    -0.67294 Ap         -0.60913 Ap         -0.52626 Ap         -0.50272 Ap     
    -0.46582 Ap         -0.42135 App        -0.41074 Ap         -0.38849 Ap     
    -0.35483 Ap         -0.34153 Ap         -0.31100 Ap         -0.30173 App    
    -0.28580 Ap         -0.22579 App        -0.18248 App        -0.02748 App    
     0.00602 App         0.06049 Ap          0.09259 Ap          0.11230 Ap     
     0.12039 Ap          0.13337 Ap          0.13375 Ap          0.15856 Ap     
     0.15900 App    
 
  Peak memory usage:   3777 Mb
  
  end of program scf
   
 Time(scf)  user:       14.3  user+sys:       14.3  wallclock:        3.6
  
  start of program der1a
  
  Peak memory usage:   2674 Mb
  
  end of program der1a
   
 Time(der1a)  user:        2.2  user+sys:        2.2  wallclock:        0.3
  
  start of program rwr
  
  Peak memory usage:   2671 Mb
  
  end of program rwr
   
 Time(rwr)  user:        4.4  user+sys:        4.4  wallclock:        0.6
  
  start of program der1b
  
   
  forces (hartrees/bohr) : total     
   
 atom  label           x              y              z
 ---- --------   -------------  -------------  -------------
    1 C1          1.451547E-03  -1.270319E-02   1.494675E-22
    2 C2         -6.300903E-03   2.972157E-03  -1.297170E-21
    3 C8          9.452895E-03   1.003860E-02  -9.143051E-23
    4 O9          6.699125E-03  -3.627315E-03   2.857204E-24
    5 H5         -8.113161E-03   6.409856E-04   8.907435E-03
    6 H6         -8.113161E-03   6.409856E-04  -8.907435E-03
    7 C12         1.077913E-02  -2.313941E-03   0.000000E+00
    8 C13        -2.372448E-03   3.417473E-03   0.000000E+00
    9 H9          9.300302E-03  -5.810997E-03   0.000000E+00
   10 H10         5.760998E-03   5.765702E-03   0.000000E+00
   11 H11        -8.965746E-03   5.683423E-03   0.000000E+00
   12 H12        -6.167475E-03  -3.570065E-03   0.000000E+00
   13 H13         8.048378E-03  -1.600927E-03   0.000000E+00
   14 H14        -1.132491E-02   6.761683E-04   0.000000E+00
 -------------   -------------  -------------  -------------
     total        1.345688E-04   2.090572E-04   0.000000E+00
   
  Peak memory usage:   3668 Mb
  
  end of program der1b
   
 Time(der1b)  user:        3.5  user+sys:        3.5  wallclock:        0.6
  
  start of program geopt
  
 ----------------------------------------------------------------------------
  Geometry optimization step   1
  Total energy:      -270.16145526408 hartrees
 ----------------------------------------------------------------------------
  
  gradient maximum:        1.1923E-02 .  (  4.5000E-04 )
  gradient rms:            5.6522E-03 .  (  3.0000E-04 )
  displacement maximum:    3.7881E-02 .  (  1.8000E-03 )
  displacement rms:        1.7976E-02 .  (  1.2000E-03 )
  
  predicted energy change:  -1.7359E-03
  step size:     0.10785
  trust radius:  0.30000
  
  molecular structure not yet converged...
  
  center of mass moved by:
     x:    -3.1149E-03     y:     8.8987E-03     z:     0.0000E+00
  
  new geometry: 
                                   angstroms
  atom               x                 y                 z
  C1            0.6069559364      2.9950472137      0.0000000000 
  C2            0.7624573157      1.6634389181      0.0000000000 
  C8           -0.3764387855      0.6743463575      0.0000000000 
  O9            0.1789906618     -0.6448912788      0.0000000000 
  H5           -1.0141834614      0.8269574339      0.8954758954 
  H6           -1.0141834614      0.8269574339     -0.8954758954 
  C12          -0.7408450405     -1.6619760436      0.0000000000 
  C13          -0.3723804430     -2.9522177546      0.0000000000 
  H9            1.7669053737      1.2226931182      0.0000000000 
  H10           1.4729212720      3.6611141067      0.0000000000 
  H11          -0.3835056766      3.4640539071      0.0000000000 
  H12          -1.1258825272     -3.7402861605      0.0000000000 
  H13           0.6818708706     -3.2381336167      0.0000000000 
  H14          -1.7928458256     -1.3451714212      0.0000000000 
   
  nuclear repulsion energy.......     214.514093482 hartrees
  -------------------------------------------------
 /  end of geometry optimization iteration   1   /
 -------------------------------------------------
   
  Peak memory usage:   2567 Mb
  
  end of program geopt
   
 Time(geopt)  user:        2.4  user+sys:        2.4  wallclock:        0.4
  
  start of program onee
  
  smallest eigenvalue of S:    3.374E-03
  number of canonical orbitals.....          130
  Peak memory usage:   2715 Mb
  
  end of program onee
   
 Time(onee)  user:        1.7  user+sys:        1.7  wallclock:        0.3
  
  start of program probe
  
  Peak memory usage:   2665 Mb
  
  end of program probe
   
 Time(probe)  user:        1.7  user+sys:        1.7  wallclock:        0.3
  
  start of program grid
  
   grid     grid set  grid #  grid sym
  ------    --------  ------  --------
  coarse        0        0        1
  medium        2        1        2
  fine          0        0        1
  ultrafine     4        2        2
  charge        0        0        1
  gradient      4        2        2
  density       0        0        1
  DFT-fine    -11        3        2
  DFT-med.    -10        4        2
  DFT-grad    -12        5        2
  DFT-der2     -8        6        2
  DFT-cphf     -9        7        2
  LMP2-enrg     4        2        2
  LMP2-grad     2        1        2
  DFT-cphf2   -15        8        2
  PBF-dens      0        0        1
  plotting      0        0        1
  Rel-grad    -17        0        1
  
  number of gridpoints: 
     atom        C1       C2       C8       O9       H5       H6      C12
  grid # 1       50       55       53       69      111        0       54
  grid # 2      180      191      170      255      441        0      191
  grid # 3     2430     2430     2430     2430     4304        0     2430
  grid # 4      756      756      756      756     1192        0      756
  grid # 5     3001     3001     3001     3001     5226        0     3001
  grid # 6     6859     6859     6859    12534    13718        0     6859
  grid # 7      426      426      426      441      744        0      426
  grid # 8      229      229      229      234      382        0      229
   
  number of gridpoints: 
     atom       C13       H9      H10      H11      H12      H13      H14
  grid # 1       50       69       69       68       69       69       67
  grid # 2      180      262      268      267      268      269      256
  grid # 3     2430     2430     2430     2430     2430     2430     2430
  grid # 4      756      756      756      756      756      756      756
  grid # 5     3001     3001     3001     3001     3001     3001     3001
  grid # 6     6859     7413     7413     7413     7413     7413     7413
  grid # 7      426      464      464      464      464      464      464
  grid # 8      229      245      245      245      245      245      245
   
  number of gridpoints: 
     atom     total
  grid # 1      853
  grid # 2     3198
  grid # 3    33464
  grid # 4    10264
  grid # 5    41238
  grid # 6   105025
  grid # 7     6099
  grid # 8     3231
   
  Peak memory usage:   2638 Mb
  
  end of program grid
   
 Time(grid)  user:        3.6  user+sys:        3.6  wallclock:        0.5
  
  start of program rwr
  
  Peak memory usage:   2661 Mb
  
  end of program rwr
   
 Time(rwr)  user:        4.5  user+sys:        4.5  wallclock:        0.6
  
  start of program scf
  
 Energy computed with NOPS off.
 Convergence Criterion:
    Energy (econv):       1.00E-05
    RMS density (dconv):  5.00E-06
  
       i  u  d  i  g                   
       t  p  i  c  r                                 RMS    maximum
       e  d  i  u  i                       energy  density   DIIS  
       r  t  s  t  d       total energy    change  change    error 
  
etot    1  N  N  2  U    -270.15804692562           3.5E-04  4.4E-03
etot    2  Y  Y  6  M    -270.15919208820  1.1E-03  1.4E-04  1.3E-03
etot    3  Y  Y  6  M    -270.15915023370 -4.2E-05  9.1E-05  1.6E-03
etot    4  Y  Y  6  M    -270.15926662835  1.2E-04  3.7E-05  6.5E-04
etot    5  N  Y  2  U    -270.15928648910  2.0E-05  9.9E-06  1.6E-04
etot    6  N  Y  2  U    -270.15928747709  9.9E-07  3.5E-06  7.7E-05
etot    7  N  N  2  U    -270.15928765532  1.8E-07  0.0E+00  0.0E+00
 
  Computing the dispersion energy correction and its gradients...
  
  
 Energy components, in hartrees:
   (A)  Nuclear repulsion............     214.51409348164
   (E)  Total one-electron terms.....    -789.90132709483
   (I)  Total two-electron terms.....     305.22794595786
   (J)    Coulomb....................     343.45716686421
   (K)    Exchange+Correlation.......     -38.22922090635
   (L)  Electronic energy............    -484.67338113696  (E+I)
   (N0) D3 correction................      -0.00393700438
   (N)  Total energy.................    -270.16322465970  (A+L+N0)
   (O)  Gas phase energy.............    -270.16322465970
  
 SCFE: SCF energy: DFT(pbe-d3)      -270.16322465970 hartrees   iterations:   7
  
 
 HOMO energy:    -0.18272
 LUMO energy:    -0.02821
 
  Orbital energies (hartrees)/symmetry label: 
   -18.80129 Ap         -9.95957 Ap         -9.94603 Ap         -9.90981 Ap     
    -9.89830 Ap         -9.87749 Ap         -0.96781 Ap         -0.72148 Ap     
    -0.67120 Ap         -0.60748 Ap         -0.52233 Ap         -0.49903 Ap     
    -0.46274 Ap         -0.41678 App        -0.40857 Ap         -0.38685 Ap     
    -0.35359 Ap         -0.34014 Ap         -0.30895 Ap         -0.30081 App    
    -0.28575 Ap         -0.22610 App        -0.18272 App        -0.02821 App    
     0.00653 App         0.05557 Ap          0.08898 Ap          0.10706 Ap     
     0.11464 Ap          0.12855 Ap          0.13053 Ap          0.15323 Ap     
     0.15396 App    
 
  Peak memory usage:   3761 Mb
  
  end of program scf
   
 Time(scf)  user:       11.4  user+sys:       11.4  wallclock:        3.4
  
  start of program der1a
  
  Peak memory usage:   2674 Mb
  
  end of program der1a
   
 Time(der1a)  user:        1.6  user+sys:        1.6  wallclock:        0.3
  
  start of program rwr
  
  Peak memory usage:   2633 Mb
  
  end of program rwr
   
 Time(rwr)  user:        4.4  user+sys:        4.4  wallclock:        0.6
  
  start of program der1b
  
   
  forces (hartrees/bohr) : total     
   
 atom  label           x              y              z
 ---- --------   -------------  -------------  -------------
    1 C1          3.660124E-04  -1.374505E-03   2.751844E-22
    2 C2          1.425052E-04   1.031689E-03  -1.142881E-23
    3 C8          1.035337E-03   2.492471E-03   0.000000E+00
    4 O9         -8.832508E-04  -2.227142E-03   1.170311E-20
    5 H5         -7.521310E-04  -9.615386E-04  -6.562856E-05
    6 H6         -7.521310E-04  -9.615386E-04   6.562856E-05
    7 C12         1.875273E-03   1.975215E-03   0.000000E+00
    8 C13         5.899480E-04  -4.198741E-04   0.000000E+00
    9 H9         -7.874004E-04  -7.125982E-04   0.000000E+00
   10 H10        -4.594809E-04   6.859397E-04   0.000000E+00
   11 H11         4.202104E-04   4.752507E-04   0.000000E+00
   12 H12        -2.938549E-04   6.901165E-04   0.000000E+00
   13 H13        -1.917276E-04   9.750960E-05   0.000000E+00
   14 H14        -3.443802E-04  -5.598350E-04   0.000000E+00
 -------------   -------------  -------------  -------------
     total       -3.507041E-05   2.311602E-04  -1.355253E-20
   
  Peak memory usage:   3667 Mb
  
  end of program der1b
   
 Time(der1b)  user:        3.8  user+sys:        3.8  wallclock:        0.6
  
  start of program geopt
  
 ----------------------------------------------------------------------------
  Geometry optimization step   2
  Total energy:      -270.16322465970 hartrees
 ----------------------------------------------------------------------------
  
  energy change:          -1.7694E-03 .  (  5.0000E-05 )
  gradient maximum:        2.4685E-03 .  (  4.5000E-04 )
  gradient rms:            9.7767E-04 .  (  3.0000E-04 )
  displacement maximum:    1.1667E-02 .  (  1.8000E-03 )
  displacement rms:        4.5196E-03 .  (  1.2000E-03 )
  
  predicted energy change:  -6.8491E-05
  step size:     0.02712
  trust radius:  0.30000
  
  molecular structure not yet converged...
  
  center of mass moved by:
     x:     1.5832E-03     y:     3.9904E-03     z:     0.0000E+00
  
  new geometry: 
                                   angstroms
  atom               x                 y                 z
  C1            0.6116258002      2.9940851344      0.0000000000 
  C2            0.7564469104      1.6617703139      0.0000000000 
  C8           -0.3839209110      0.6748983760      0.0000000000 
  O9            0.1785741029     -0.6430826083      0.0000000000 
  H5           -1.0269616510      0.8159436761      0.8948889606 
  H6           -1.0269616510      0.8159436761     -0.8948889606 
  C12          -0.7358522313     -1.6610663784      0.0000000000 
  C13          -0.3669072013     -2.9508043352      0.0000000000 
  H9            1.7553829366      1.2088976612      0.0000000000 
  H10           1.4807136130      3.6569994157      0.0000000000 
  H11          -0.3738949438      3.4737179427      0.0000000000 
  H12          -1.1257220739     -3.7336981202      0.0000000000 
  H13           0.6864806964     -3.2398952799      0.0000000000 
  H14          -1.7908967628     -1.3513393454      0.0000000000 
   
  nuclear repulsion energy.......     214.592581846 hartrees
  -------------------------------------------------
 /  end of geometry optimization iteration   2   /
 -------------------------------------------------
   
  Peak memory usage:   2567 Mb
  
  end of program geopt
   
 Time(geopt)  user:        2.0  user+sys:        2.0  wallclock:        0.3
  
  start of program onee
  
  smallest eigenvalue of S:    3.379E-03
  number of canonical orbitals.....          130
  Peak memory usage:   2715 Mb
  
  end of program onee
   
 Time(onee)  user:        1.6  user+sys:        1.6  wallclock:        0.3
  
  start of program probe
  
  Peak memory usage:   2665 Mb
  
  end of program probe
   
 Time(probe)  user:        1.2  user+sys:        1.2  wallclock:        0.2
  
  start of program grid
  
   grid     grid set  grid #  grid sym
  ------    --------  ------  --------
  coarse        0        0        1
  medium        2        1        2
  fine          0        0        1
  ultrafine     4        2        2
  charge        0        0        1
  gradient      4        2        2
  density       0        0        1
  DFT-fine    -11        3        2
  DFT-med.    -10        4        2
  DFT-grad    -12        5        2
  DFT-der2     -8        6        2
  DFT-cphf     -9        7        2
  LMP2-enrg     4        2        2
  LMP2-grad     2        1        2
  DFT-cphf2   -15        8        2
  PBF-dens      0        0        1
  plotting      0        0        1
  Rel-grad    -17        0        1
  
  number of gridpoints: 
     atom        C1       C2       C8       O9       H5       H6      C12
  grid # 1       50       55       54       68      112        0       55
  grid # 2      179      189      170      256      443        0      192
  grid # 3     2430     2430     2430     2430     4304        0     2430
  grid # 4      756      756      756      756     1192        0      756
  grid # 5     3001     3001     3001     3001     5226        0     3001
  grid # 6     6859     6859     6859    12534    13718        0     6859
  grid # 7      426      426      426      441      744        0      426
  grid # 8      229      229      229      234      382        0      229
   
  number of gridpoints: 
     atom       C13       H9      H10      H11      H12      H13      H14
  grid # 1       50       69       69       68       69       69       67
  grid # 2      180      261      268      267      268      269      256
  grid # 3     2430     2430     2430     2430     2430     2430     2430
  grid # 4      756      756      756      756      756      756      756
  grid # 5     3001     3001     3001     3001     3001     3001     3001
  grid # 6     6859     7413     7413     7413     7413     7413     7413
  grid # 7      426      464      464      464      464      464      464
  grid # 8      229      245      245      245      245      245      245
   
  number of gridpoints: 
     atom     total
  grid # 1      855
  grid # 2     3198
  grid # 3    33464
  grid # 4    10264
  grid # 5    41238
  grid # 6   105025
  grid # 7     6099
  grid # 8     3231
   
  Peak memory usage:   2638 Mb
  
  end of program grid
   
 Time(grid)  user:        3.8  user+sys:        3.8  wallclock:        0.6
  
  start of program rwr
  
  Peak memory usage:   2661 Mb
  
  end of program rwr
   
 Time(rwr)  user:        4.2  user+sys:        4.2  wallclock:        0.6
  
  start of program scf
  
 Energy computed with NOPS off.
 Convergence Criterion:
    Energy (econv):       1.00E-05
    RMS density (dconv):  5.00E-06
  
       i  u  d  i  g                   
       t  p  i  c  r                                 RMS    maximum
       e  d  i  u  i                       energy  density   DIIS  
       r  t  s  t  d       total energy    change  change    error 
  
etot    1  N  N  2  U    -270.15928589542           8.8E-05  1.2E-03
etot    2  Y  Y  6  M    -270.15935768914  7.2E-05  2.3E-05  1.8E-04
etot    3  N  Y  2  U    -270.15935273176 -5.0E-06  1.6E-05  3.0E-04
etot    4  N  Y  2  U    -270.15935605676  3.3E-06  4.6E-06  7.2E-05
etot    5  N  N  2  U    -270.15935629031  2.3E-07  0.0E+00  0.0E+00
 
  Computing the dispersion energy correction and its gradients...
  
  
 Energy components, in hartrees:
   (A)  Nuclear repulsion............     214.59258184580
   (E)  Total one-electron terms.....    -790.05515029500
   (I)  Total two-electron terms.....     305.30321215890
   (J)    Coulomb....................     343.53284754068
   (K)    Exchange+Correlation.......     -38.22963538178
   (L)  Electronic energy............    -484.75193813610  (E+I)
   (N0) D3 correction................      -0.00393298582
   (N)  Total energy.................    -270.16328927613  (A+L+N0)
   (O)  Gas phase energy.............    -270.16328927613
  
 SCFE: SCF energy: DFT(pbe-d3)      -270.16328927613 hartrees   iterations:   5
  
 
 HOMO energy:    -0.18241
 LUMO energy:    -0.02856
 
  Orbital energies (hartrees)/symmetry label: 
   -18.80123 Ap         -9.96015 Ap         -9.94554 Ap         -9.91012 Ap     
    -9.89871 Ap         -9.87689 Ap         -0.96844 Ap         -0.72152 Ap     
    -0.67105 Ap         -0.60784 Ap         -0.52255 Ap         -0.49903 Ap     
    -0.46252 Ap         -0.41662 App        -0.40866 Ap         -0.38696 Ap     
    -0.35384 Ap         -0.34002 Ap         -0.30863 Ap         -0.30089 App    
    -0.28617 Ap         -0.22655 App        -0.18241 App        -0.02856 App    
     0.00714 App         0.05514 Ap          0.08917 Ap          0.10690 Ap     
     0.11407 Ap          0.12871 Ap          0.13135 Ap          0.15271 Ap     
     0.15361 App    
 
  Peak memory usage:   3773 Mb
  
  end of program scf
   
 Time(scf)  user:       10.5  user+sys:       10.5  wallclock:        3.1
  
  start of program der1a
  
  Peak memory usage:   2674 Mb
  
  end of program der1a
   
 Time(der1a)  user:        1.7  user+sys:        1.7  wallclock:        0.3
  
  start of program rwr
  
  Peak memory usage:   2633 Mb
  
  end of program rwr
   
 Time(rwr)  user:        4.7  user+sys:        4.7  wallclock:        0.7
  
  start of program der1b
  
   
  forces (hartrees/bohr) : total     
   
 atom  label           x              y              z
 ---- --------   -------------  -------------  -------------
    1 C1          1.533156E-04  -2.289645E-04   1.325028E-22
    2 C2         -4.357225E-04   4.831505E-04   8.457322E-22
    3 C8          2.776064E-05   1.053798E-03   9.143051E-23
    4 O9         -1.989976E-04  -9.216351E-04  -2.857204E-24
    5 H5          1.094556E-04  -1.037272E-04  -3.362885E-04
    6 H6          1.094556E-04  -1.037272E-04   3.362885E-04
    7 C12         3.009391E-04   9.518388E-04   0.000000E+00
    8 C13         3.957545E-04  -8.532473E-04   0.000000E+00
    9 H9         -4.531466E-04  -1.560512E-04   0.000000E+00
   10 H10        -3.646794E-04   7.014034E-05   0.000000E+00
   11 H11         2.793487E-04   2.966385E-05   0.000000E+00
   12 H12         5.437988E-05   2.557114E-04   0.000000E+00
   13 H13        -2.846692E-04   6.385811E-05   0.000000E+00
   14 H14         2.078377E-04  -2.963464E-04   0.000000E+00
 -------------   -------------  -------------  -------------
     total       -9.896783E-05   2.444620E-04   0.000000E+00
   
  Peak memory usage:   3668 Mb
  
  end of program der1b
   
 Time(der1b)  user:        3.9  user+sys:        3.9  wallclock:        0.6
  
  start of program geopt
  
 ----------------------------------------------------------------------------
  Geometry optimization step   3
  Total energy:      -270.16328927613 hartrees
 ----------------------------------------------------------------------------
  
  energy change:          -6.4616E-05 .  (  5.0000E-05 )
  gradient maximum:        9.2956E-04 .  (  4.5000E-04 )
  gradient rms:            3.6587E-04 .  (  3.0000E-04 )
  displacement maximum:    5.9404E-03 .  (  1.8000E-03 )
  displacement rms:        1.9034E-03 .  (  1.2000E-03 )
  
  predicted energy change:  -1.0911E-05
  step size:     0.01142
  trust radius:  0.30000
  
  molecular structure not yet converged...
  
  center of mass moved by:
     x:     2.8323E-04     y:     1.3427E-03     z:     0.0000E+00
  
  new geometry: 
                                   angstroms
  atom               x                 y                 z
  C1            0.6137716101      2.9951103857      0.0000000000 
  C2            0.7527460531      1.6626071705      0.0000000000 
  C8           -0.3869630223      0.6766814724      0.0000000000 
  O9            0.1780318870     -0.6425502980      0.0000000000 
  H5           -1.0310071536      0.8153106954      0.8940117026 
  H6           -1.0310071536      0.8153106954     -0.8940117026 
  C12          -0.7330251377     -1.6623580991      0.0000000000 
  C13          -0.3642054593     -2.9529715476      0.0000000000 
  H9            1.7484989428      1.2037994938      0.0000000000 
  H10           1.4844686125      3.6555231140      0.0000000000 
  H11          -0.3687155819      3.4799907667      0.0000000000 
  H12          -1.1256039902     -3.7330227927      0.0000000000 
  H13           0.6880116489     -3.2443429088      0.0000000000 
  H14          -1.7889931178     -1.3566654866      0.0000000000 
   
  nuclear repulsion energy.......     214.555356391 hartrees
  -------------------------------------------------
 /  end of geometry optimization iteration   3   /
 -------------------------------------------------
   
  Peak memory usage:   2567 Mb
  
  end of program geopt
   
 Time(geopt)  user:        2.0  user+sys:        2.0  wallclock:        0.3
  
  start of program onee
  
  smallest eigenvalue of S:    3.380E-03
  number of canonical orbitals.....          130
  Peak memory usage:   2715 Mb
  
  end of program onee
   
 Time(onee)  user:        1.8  user+sys:        1.8  wallclock:        0.3
  
  start of program probe
  
  Peak memory usage:   2665 Mb
  
  end of program probe
   
 Time(probe)  user:        1.5  user+sys:        1.5  wallclock:        0.3
  
  start of program grid
  
   grid     grid set  grid #  grid sym
  ------    --------  ------  --------
  coarse        0        0        1
  medium        2        1        2
  fine          0        0        1
  ultrafine     4        2        2
  charge        0        0        1
  gradient      4        2        2
  density       0        0        1
  DFT-fine    -11        3        2
  DFT-med.    -10        4        2
  DFT-grad    -12        5        2
  DFT-der2     -8        6        2
  DFT-cphf     -9        7        2
  LMP2-enrg     4        2        2
  LMP2-grad     2        1        2
  DFT-cphf2   -15        8        2
  PBF-dens      0        0        1
  plotting      0        0        1
  Rel-grad    -17        0        1
  
  number of gridpoints: 
     atom        C1       C2       C8       O9       H5       H6      C12
  grid # 1       50       55       54       68      112        0       55
  grid # 2      179      189      169      257      441        0      191
  grid # 3     2430     2430     2430     2430     4304        0     2430
  grid # 4      756      756      756      756     1192        0      756
  grid # 5     3001     3001     3001     3001     5226        0     3001
  grid # 6     6859     6859     6859    12534    13718        0     6859
  grid # 7      426      426      426      441      744        0      426
  grid # 8      229      229      229      234      382        0      229
   
  number of gridpoints: 
     atom       C13       H9      H10      H11      H12      H13      H14
  grid # 1       50       69       69       68       69       69       67
  grid # 2      180      260      267      267      268      269      256
  grid # 3     2430     2430     2430     2430     2430     2430     2430
  grid # 4      756      756      756      756      756      756      756
  grid # 5     3001     3001     3001     3001     3001     3001     3001
  grid # 6     6859     7413     7413     7413     7413     7413     7413
  grid # 7      426      464      464      464      464      464      464
  grid # 8      229      245      245      245      245      245      245
   
  number of gridpoints: 
     atom     total
  grid # 1      855
  grid # 2     3193
  grid # 3    33464
  grid # 4    10264
  grid # 5    41238
  grid # 6   105025
  grid # 7     6099
  grid # 8     3231
   
  Peak memory usage:   2638 Mb
  
  end of program grid
   
 Time(grid)  user:        3.5  user+sys:        3.5  wallclock:        0.5
  
  start of program rwr
  
  Peak memory usage:   2661 Mb
  
  end of program rwr
   
 Time(rwr)  user:        4.2  user+sys:        4.2  wallclock:        0.6
  
  start of program scf
  
 Energy computed with NOPS off.
 Convergence Criterion:
    Energy (econv):       1.00E-05
    RMS density (dconv):  5.00E-06
  
       i  u  d  i  g                   
       t  p  i  c  r                                 RMS    maximum
       e  d  i  u  i                       energy  density   DIIS  
       r  t  s  t  d       total energy    change  change    error 
  
etot    1  N  N  2  U    -270.15934097094           4.4E-05  6.5E-04
etot    2  N  Y  2  U    -270.15935826403  1.7E-05  1.3E-05  1.2E-04
etot    3  N  Y  2  U    -270.15935707874 -1.2E-06  9.4E-06  2.0E-04
etot    4  N  Y  2  U    -270.15935861218  1.5E-06  2.2E-06  4.9E-05
etot    5  N  N  2  U    -270.15935869666  8.4E-08  0.0E+00  0.0E+00
 
  Computing the dispersion energy correction and its gradients...
  
  
 Energy components, in hartrees:
   (A)  Nuclear repulsion............     214.55535639102
   (E)  Total one-electron terms.....    -789.97855582603
   (I)  Total two-electron terms.....     305.26384073835
   (J)    Coulomb....................     343.49398229533
   (K)    Exchange+Correlation.......     -38.23014155699
   (L)  Electronic energy............    -484.71471508768  (E+I)
   (N0) D3 correction................      -0.00393078027
   (N)  Total energy.................    -270.16328947694  (A+L+N0)
   (O)  Gas phase energy.............    -270.16328947694
  
 SCFE: SCF energy: DFT(pbe-d3)      -270.16328947694 hartrees   iterations:   5
  
 
 HOMO energy:    -0.18230
 LUMO energy:    -0.02860
 
  Orbital energies (hartrees)/symmetry label: 
   -18.80143 Ap         -9.96012 Ap         -9.94551 Ap         -9.91010 Ap     
    -9.89873 Ap         -9.87689 Ap         -0.96823 Ap         -0.72170 Ap     
    -0.67090 Ap         -0.60823 Ap         -0.52257 Ap         -0.49918 Ap     
    -0.46251 Ap         -0.41651 App        -0.40860 Ap         -0.38711 Ap     
    -0.35412 Ap         -0.34012 Ap         -0.30846 Ap         -0.30107 App    
    -0.28614 Ap         -0.22672 App        -0.18230 App        -0.02860 App    
     0.00723 App         0.05478 Ap          0.08928 Ap          0.10691 Ap     
     0.11399 Ap          0.12887 Ap          0.13157 Ap          0.15261 Ap     
     0.15361 App    
 
  Peak memory usage:   3773 Mb
  
  end of program scf
   
 Time(scf)  user:       11.6  user+sys:       11.6  wallclock:        3.2
  
  start of program der1a
  
  Peak memory usage:   2674 Mb
  
  end of program der1a
   
 Time(der1a)  user:        1.8  user+sys:        1.8  wallclock:        0.3
  
  start of program rwr
  
  Peak memory usage:   2633 Mb
  
  end of program rwr
   
 Time(rwr)  user:        4.6  user+sys:        4.6  wallclock:        0.7
  
  start of program der1b
  
   
  forces (hartrees/bohr) : total     
   
 atom  label           x              y              z
 ---- --------   -------------  -------------  -------------
    1 C1         -2.428880E-05   1.671788E-04   7.432301E-22
    2 C2         -6.399471E-05   2.219722E-05  -3.257212E-22
    3 C8         -3.268991E-04  -1.696497E-04  -9.143051E-23
    4 O9         -4.634526E-05   7.467659E-05   0.000000E+00
    5 H5          1.215147E-04  -4.583954E-05  -5.553732E-05
    6 H6          1.215147E-04  -4.583954E-05   5.553732E-05
    7 C12         8.697562E-06  -2.970383E-05   0.000000E+00
    8 C13         7.283834E-05   2.741088E-04   0.000000E+00
    9 H9          2.547254E-05   7.964051E-05   0.000000E+00
   10 H10        -8.000817E-05  -3.058952E-05   0.000000E+00
   11 H11        -7.214257E-05  -1.126790E-05   0.000000E+00
   12 H12         6.659535E-05   2.023683E-05   0.000000E+00
   13 H13         1.148433E-05  -1.026157E-05   0.000000E+00
   14 H14         5.204805E-05  -4.418220E-05   0.000000E+00
 -------------   -------------  -------------  -------------
     total       -1.335129E-04   2.507049E-04   0.000000E+00
   
  Peak memory usage:   3668 Mb
  
  end of program der1b
   
 Time(der1b)  user:        3.6  user+sys:        3.6  wallclock:        0.6
  
  start of program geopt
  
 ----------------------------------------------------------------------------
  Geometry optimization step   4
  Total energy:      -270.16328947694 hartrees
 ----------------------------------------------------------------------------
  
  energy change:          -2.0081E-07 !  (  5.0000E-05 )
  gradient maximum:        2.4123E-04 *  (  4.5000E-04 )
  gradient rms:            9.4017E-05 *  (  3.0000E-04 )
  displacement maximum:    8.6782E-04 *  (  1.8000E-03 )
  displacement rms:        2.7855E-04 *  (  1.2000E-03 )
  
  predicted energy change:  -4.1741E-07
  step size:     0.00167
  trust radius:  0.30000
  
  ********************************************************
  **           Geometry optimization complete           **
  ********************************************************
  
  Checking the geometry optimization convergence pattern ...
  
  best                    worst
  ==0=====1=====2=====3=====4==
    ^                          
  
  Convergence category 0: monotonic convergence.
  
  center of mass moved by:
     x:     0.0000E+00     y:     0.0000E+00     z:     0.0000E+00
  
  final geometry: 
                                   angstroms
  atom               x                 y                 z
  C1            0.6137716101      2.9951103857      0.0000000000 
  C2            0.7527460531      1.6626071705      0.0000000000 
  C8           -0.3869630223      0.6766814724      0.0000000000 
  O9            0.1780318870     -0.6425502980      0.0000000000 
  H5           -1.0310071536      0.8153106954      0.8940117026 
  H6           -1.0310071536      0.8153106954     -0.8940117026 
  C12          -0.7330251377     -1.6623580991      0.0000000000 
  C13          -0.3642054593     -2.9529715476      0.0000000000 
  H9            1.7484989428      1.2037994938      0.0000000000 
  H10           1.4844686125      3.6555231140      0.0000000000 
  H11          -0.3687155819      3.4799907667      0.0000000000 
  H12          -1.1256039902     -3.7330227927      0.0000000000 
  H13           0.6880116489     -3.2443429088      0.0000000000 
  H14          -1.7889931178     -1.3566654866      0.0000000000 
   
  bond lengths (angstroms):
 C1      -C2      :   1.339731
 C1      -H10     :   1.092821
 C1      -H11     :   1.095623
 C2      -C8      :   1.506979
 C2      -H9      :   1.096371
 C8      -O9      :   1.435128
 C8      -H5      :   1.110526
 C8      -H6      :   1.110526
 O9      -C12     :   1.367491
 C12     -C13     :   1.342278
 C12     -H14     :   1.099325
 C13     -H12     :   1.090049
 C13     -H13     :   1.091814
  
  bond angles:
 H10     -C1      -C2      : 121.225679
 H11     -C1      -C2      : 122.221596
 H11     -C1      -H10     : 116.552725
 C8      -C2      -C1      : 124.907849
 H9      -C2      -C1      : 120.692757
 H9      -C2      -C8      : 114.399393
 O9      -C8      -C2      : 107.677755
 H5      -C8      -C2      : 110.912084
 H5      -C8      -O9      : 110.063991
 H6      -C8      -C2      : 110.912084
 H6      -C8      -O9      : 110.063991
 H6      -C8      -H5      : 107.227178
 C12     -O9      -C8      : 115.039351
 C13     -C12     -O9      : 122.275234
 H14     -C12     -O9      : 115.631151
 H14     -C12     -C13     : 122.093615
 H12     -C13     -C12     : 119.744897
 H13     -C13     -C12     : 121.426431
 H13     -C13     -H12     : 118.828672
  
  torsional angles:
 C1      -C2      -C8      -O9      : 180.000000
 C1      -C2      -C8      -H5      : -59.519528
 C1      -C2      -C8      -H6      :  59.519528
 C2      -C8      -O9      -C12     : 180.000000
 C8      -C2      -C1      -H10     : 180.000000
 C8      -C2      -C1      -H11     :   0.000001
 C8      -O9      -C12     -C13     : 180.000000
 C8      -O9      -C12     -H14     :   0.000000
 O9      -C8      -C2      -H9      :   0.000000
 O9      -C12     -C13     -H12     : 180.000000
 O9      -C12     -C13     -H13     :   0.000000
 H5      -C8      -C2      -H9      : 120.480472
 H5      -C8      -O9      -C12     :  58.986816
 H6      -C8      -C2      -H9      :-120.480472
 H6      -C8      -O9      -C12     : -58.986816
 H9      -C2      -C1      -H10     :   0.000000
 H9      -C2      -C1      -H11     : 180.000000
 H12     -C13     -C12     -H14     :   0.000000
 H13     -C13     -C12     -H14     : 180.000000
  
  principal moments of inertia:
        amu*angstrom^2:       21.36891      361.77804      379.92491
                g*cm^2: 3.54839122E-39 6.00746488E-38 6.30880070E-38
   
  rotational constants:
               cm^(-1):      0.78888562      0.04659661      0.04437095
                   GHz:     23.65019604      1.39693115      1.33020763
   
  nuclear repulsion energy.......     214.555356391 hartrees
  -------------------------------------------------
 /  end of geometry optimization iteration   4   /
 -------------------------------------------------
   
  Peak memory usage:   2772 Mb
  
  end of program geopt
   
 Time(geopt)  user:        4.1  user+sys:        4.1  wallclock:        2.2
  
  start of program cutabab2
  
  Peak memory usage:   2728 Mb
  
  end of program cutabab2
   
 Time(cutabab2)  user:        2.0  user+sys:        2.0  wallclock:        0.3
  
  start of program der2a
  
  Peak memory usage:   2735 Mb
  
  end of program der2a
   
 Time(der2a)  user:        2.5  user+sys:        2.5  wallclock:        0.4
  
  start of program grid
  
  
   Turning symmetry off because some of the
   following programs cannot use it.
   grid     grid set  grid #  grid sym
  ------    --------  ------  --------
  coarse        0        0        1
  medium        2        1        2
  fine          0        0        1
  ultrafine     4        2        2
  charge        0        0        1
  gradient      4        2        2
  density       0        0        1
  DFT-fine    -11        3        2
  DFT-med.    -10        4        2
  DFT-grad    -12        5        2
  DFT-der2     -8        6        2
  DFT-cphf     -9        7        2
  LMP2-enrg     4        2        2
  LMP2-grad     2        1        2
  DFT-cphf2   -15        8        2
  PBF-dens      0        0        1
  plotting      0        0        1
  Rel-grad    -17        0        1
  
  number of gridpoints: 
     atom        C1       C2       C8       O9       H5       H6      C12
  grid # 1       87       94       88      114      112      112       95
  grid # 2      317      334      284      450      441      441      336
  grid # 3     4304     4304     4304     4304     4304     4304     4304
  grid # 4     1192     1192     1192     1192     1192     1192     1192
  grid # 5     5226     5226     5226     5226     5226     5226     5226
  grid # 6    12650    12650    12650    23504    13718    13718    12650
  grid # 7      688      688      688      714      744      744      688
  grid # 8      358      358      358      360      382      382      358
   
  number of gridpoints: 
     atom       C13       H9      H10      H11      H12      H13      H14
  grid # 1       87      118      118      116      118      118      114
  grid # 2      318      444      454      454      456      458      436
  grid # 3     4304     4304     4304     4304     4304     4304     4304
  grid # 4     1192     1192     1192     1192     1192     1192     1192
  grid # 5     5226     5226     5226     5226     5226     5226     5226
  grid # 6    12650    13718    13718    13718    13718    13718    13718
  grid # 7      688      744      744      744      744      744      744
  grid # 8      358      382      382      382      382      382      382
   
  number of gridpoints: 
     atom     total
  grid # 1     1491
  grid # 2     5623
  grid # 3    60256
  grid # 4    16688
  grid # 5    73164
  grid # 6   196498
  grid # 7    10106
  grid # 8     5206
   
  Peak memory usage:   2638 Mb
  
  end of program grid
   
 Time(grid)  user:        5.6  user+sys:        5.6  wallclock:        0.8
  
  start of program der2b
  
  Peak memory usage:   3460 Mb
  
  end of program der2b
   
 Time(der2b)  user:       20.4  user+sys:       20.4  wallclock:        2.7
  
  start of program der2nda
  
  Computing the dispersion energy correction, gradient, hessian...
 
  Peak memory usage:   2674 Mb
  
  end of program der2nda
   
 Time(der2nda)  user:        2.1  user+sys:        2.1  wallclock:        0.5
  
  start of program der2ndb
  
  Peak memory usage:   3344 Mb
  
  end of program der2ndb
   
 Time(der2ndb)  user:       54.6  user+sys:       54.6  wallclock:        7.9
  
  start of program rwr
  
  Peak memory usage:   2661 Mb
  
  end of program rwr
   
 Time(rwr)  user:        4.7  user+sys:        4.7  wallclock:        0.7
  
  start of program cphfa
  
       1  vectors produced in CPHF
  
     v    i  j  k  i  g
     e    t  c  c  c  r
     c    e  o  o  u  i
     t    r  r  r  t  d       RMS  
  
     1    1  0  0  6  M     2.0E-02
     1    2  0  0  6  M     1.9E-03
     1    3  0  0  6  M     5.3E-04
     1    4  0  0  6  M     1.8E-04
     1    5  0  0  6  M     5.9E-05
     1    6  0  0  6  M     1.9E-05
  
  
  Atomic Polar Tensors (au): Total
  =========================
  
  APT for atom C1      
  --------------------------------------
        0.0831      -0.0736       0.0000
       -0.0636      -0.1267       0.0000
       -0.0000       0.0000      -0.2839
  --------------------------------------
  
  APT for atom C2      
  --------------------------------------
        0.1338       0.1661       0.0000
        0.0311       0.1239      -0.0000
       -0.0000      -0.0000      -0.1632
  --------------------------------------
  
  APT for atom C8      
  --------------------------------------
        0.2544      -0.3858      -0.0000
       -0.0268       1.1824      -0.0000
       -0.0000       0.0000       0.4291
  --------------------------------------
  
  APT for atom O9      
  --------------------------------------
       -0.4981      -0.7105       0.0000
       -0.0758      -1.7587       0.0000
        0.0000      -0.0000      -0.2401
  --------------------------------------
  
  APT for atom H5      
  --------------------------------------
       -0.0416       0.0732       0.0897
       -0.0332      -0.1233      -0.0017
        0.0978      -0.0452      -0.0848
  --------------------------------------
  
  APT for atom H6      
  --------------------------------------
       -0.0416       0.0732      -0.0897
       -0.0332      -0.1233       0.0017
       -0.0978       0.0451      -0.0848
  --------------------------------------
  
  APT for atom C12     
  --------------------------------------
        0.4136       0.8293      -0.0000
        0.1280       1.3026      -0.0000
        0.0000       0.0000       0.0136
  --------------------------------------
  
  APT for atom C13     
  --------------------------------------
        0.0169       0.0536      -0.0000
       -0.0136      -0.5512       0.0000
       -0.0000       0.0000      -0.4025
  --------------------------------------
  
  APT for atom H9      
  --------------------------------------
       -0.0415       0.0239       0.0000
        0.0559       0.0239       0.0000
       -0.0000       0.0000       0.1300
  --------------------------------------
  
  APT for atom H10     
  --------------------------------------
       -0.0315      -0.0769      -0.0000
       -0.0538      -0.0273       0.0000
        0.0000       0.0000       0.1377
  --------------------------------------
  
  APT for atom H11     
  --------------------------------------
       -0.0787       0.0765      -0.0000
        0.0320       0.0307       0.0000
       -0.0000      -0.0000       0.1259
  --------------------------------------
  
  APT for atom H12     
  --------------------------------------
       -0.0121      -0.0624      -0.0000
       -0.0410      -0.0063       0.0000
        0.0000       0.0000       0.1404
  --------------------------------------
  
  APT for atom H13     
  --------------------------------------
       -0.0558       0.0284      -0.0000
        0.0032       0.0577       0.0000
       -0.0000       0.0000       0.1664
  --------------------------------------
  
  APT for atom H14     
  --------------------------------------
       -0.1009      -0.0150       0.0000
        0.0906      -0.0046      -0.0000
        0.0000      -0.0000       0.1162
  --------------------------------------
  
  Peak memory usage:   3095 Mb
  
  end of program cphfa
   
 Time(cphfa)  user:       45.2  user+sys:       45.2  wallclock:        6.5
  
  start of program freq
  
   
  Number of frequencies:  36
  harmonic frequencies in cm**-1, reduced masses in amu,
  force constants in mDyne/A, and
  normal modes in cartesian coordinates:          36
  IR intensities in km/mol
  
  vibration #            1        2        3        4        5        6
                  -------- -------- -------- -------- -------- --------
  frequencies      -121.42   -38.37    69.20   153.26   349.80   414.85
  symmetries       App      App      App      Ap       Ap       Ap      
  intensities         3.91     0.06     1.51     0.21     0.55     1.94
  reduc. mass         1.03     0.91     4.79     1.56     1.04     1.74
  force const         0.01     0.00     0.01     0.02     0.07     0.18
    C1       X    -0.00003 -0.00005  0.00002 -0.11917 -0.07063 -0.02348
    C1       Y    -0.00000  0.00002  0.00000  0.02191 -0.06151 -0.12921
    C1       Z     0.11658 -0.00165 -0.09404 -0.00002 -0.00003  0.00001
    C2       X     0.00003 -0.00003 -0.00003  0.03513  0.12446 -0.04122
    C2       Y     0.00000  0.00002 -0.00000  0.03676 -0.03750 -0.11461
    C2       Z    -0.12122 -0.03567 -0.01969  0.00004  0.00000  0.00000
    C8       X     0.00002  0.00004 -0.00002  0.09958  0.07201 -0.04823
    C8       Y     0.00000 -0.00004 -0.00000 -0.03352  0.02238 -0.03217
    C8       Z    -0.09232  0.10456  0.06636 -0.00005  0.00005 -0.00002
    O9       X    -0.00000  0.00011  0.00000  0.09805 -0.07613  0.06865
    O9       Y    -0.00000 -0.00002  0.00000 -0.03753 -0.00791  0.05355
    O9       Z     0.07649 -0.01726  0.17876  0.00003  0.00000  0.00000
    H5       X    -0.07755  0.13183 -0.00785  0.09387  0.08534 -0.05437
    H5       Y     0.09698 -0.02613  0.07428 -0.04969  0.10147 -0.06636
    H5       Z    -0.16468  0.20279  0.04966 -0.00189 -0.00093  0.00326
    H6       X     0.07759 -0.13177  0.00780  0.09401  0.08519 -0.05432
    H6       Y    -0.09696  0.02598 -0.07430 -0.04971  0.10150 -0.06637
    H6       Z    -0.16468  0.20279  0.04966  0.00169  0.00114 -0.00334
    C12      X    -0.00001  0.00003  0.00001  0.01913 -0.09102  0.04269
    C12      Y    -0.00000  0.00003  0.00000  0.02745  0.01182  0.10931
    C12      Z     0.00777 -0.13372 -0.01521  0.00007 -0.00003  0.00000
    C13      X    -0.00001 -0.00010  0.00001 -0.12681  0.05519 -0.00362
    C13      Y    -0.00000 -0.00001  0.00000 -0.01304  0.05608  0.11116
    C13      Z     0.01536  0.07956 -0.12602 -0.00006  0.00000 -0.00000
    H9       X     0.00004 -0.00001 -0.00003  0.08061  0.14751 -0.06727
    H9       Y     0.00002  0.00007 -0.00002  0.13641  0.01724 -0.16711
    H9       Z    -0.43504 -0.16933 -0.03631  0.00016  0.00001  0.00000
    H10      X    -0.00006 -0.00006  0.00005 -0.20333 -0.21245 -0.02644
    H10      Y     0.00004  0.00003 -0.00004  0.13235  0.12312 -0.12750
    H10      Z     0.00985 -0.10581 -0.17022  0.00005 -0.00005  0.00001
    H11      X    -0.00005 -0.00006  0.00004 -0.18101 -0.17544 -0.02828
    H11      Y    -0.00005  0.00001  0.00005 -0.10240 -0.27055 -0.13983
    H11      Z     0.41985  0.13145 -0.08256 -0.00014 -0.00003  0.00001
    H12      X    -0.00001 -0.00019  0.00001 -0.22534  0.19493 -0.02613
    H12      Y    -0.00000  0.00008  0.00000  0.08262 -0.07792  0.13487
    H12      Z    -0.02262 -0.09266 -0.25998  0.00006 -0.00010  0.00006
    H13      X    -0.00001 -0.00013  0.00001 -0.16436  0.11058 -0.01043
    H13      Y     0.00000 -0.00013 -0.00000 -0.14768  0.25287  0.08808
    H13      Z     0.06651  0.40379 -0.07536 -0.00030  0.00013 -0.00007
    H14      X    -0.00001  0.00006  0.00001  0.04650 -0.09921  0.05721
    H14      Y     0.00000  0.00011 -0.00000  0.12259 -0.01828  0.15547
    H14      Z    -0.04406 -0.45470 -0.06628  0.00032 -0.00017  0.00009
  
  vibration #            7        8        9       10       11       12
                  -------- -------- -------- -------- -------- --------
  frequencies       530.11   538.57   675.42   778.34   883.44   889.59
  symmetries       Ap       App      App      App      Ap       App     
  intensities         3.01     8.73     4.23    47.59     5.03    32.97
  reduc. mass         1.17     0.98     1.37     1.08     0.94     0.99
  force const         0.19     0.17     0.37     0.39     0.43     0.46
    C1       X    -0.01691  0.00001  0.00000  0.00000  0.04762  0.00000
    C1       Y    -0.05126  0.00002 -0.00000 -0.00000  0.01817 -0.00000
    C1       Z     0.00001  0.04735  0.00216 -0.00027  0.00001 -0.14285
    C2       X     0.06859 -0.00002  0.00002  0.00001  0.02736  0.00000
    C2       Y    -0.03204  0.00001  0.00000  0.00000  0.01155  0.00000
    C2       Z    -0.00004 -0.14750 -0.00985 -0.00218  0.00000  0.03790
    C8       X    -0.04512  0.00001 -0.00001 -0.00001 -0.10154 -0.00001
    C8       Y     0.10081 -0.00003  0.00002  0.00001  0.06697  0.00001
    C8       Z     0.00000 -0.01377  0.01215  0.00227 -0.00001  0.01749
    O9       X    -0.04809  0.00002 -0.00001  0.00000  0.09860  0.00001
    O9       Y     0.09274 -0.00003  0.00001  0.00000 -0.00085  0.00000
    O9       Z     0.00001  0.02644  0.05809  0.01114 -0.00000 -0.00239
    H5       X    -0.02716  0.23276  0.00997 -0.00651 -0.10041 -0.06095
    H5       Y     0.14664  0.06699  0.01179  0.00343 -0.01795 -0.02877
    H5       Z     0.00483  0.14468  0.02025 -0.00219  0.00961 -0.02138
    H6       X    -0.02735 -0.23275 -0.00998  0.00650 -0.10045  0.06094
    H6       Y     0.14661 -0.06709 -0.01173 -0.00340 -0.01796  0.02878
    H6       Z    -0.00469  0.14468  0.02024 -0.00219 -0.00960 -0.02138
    C12      X     0.10352 -0.00003 -0.00001 -0.00001 -0.02206 -0.00000
    C12      Y    -0.03321  0.00001 -0.00002 -0.00001 -0.02724 -0.00000
    C12      Z     0.00001  0.01313 -0.15662 -0.07728  0.00001  0.00078
    C13      X    -0.00837  0.00000  0.00001 -0.00000 -0.06485 -0.00001
    C13      Y    -0.08304  0.00003 -0.00001 -0.00001 -0.05888 -0.00001
    C13      Z    -0.00000 -0.00452  0.01435  0.14657 -0.00001 -0.00058
    H9       X     0.04192 -0.00002  0.00001 -0.00000 -0.06390 -0.00001
    H9       Y    -0.08327  0.00002 -0.00001 -0.00001 -0.18819 -0.00002
    H9       Z     0.00010  0.31820  0.01779  0.00168  0.00001 -0.07056
    H10      X    -0.11790  0.00004 -0.00002 -0.00001 -0.14834 -0.00001
    H10      Y     0.07904 -0.00003  0.00003  0.00001  0.27484  0.00002
    H10      Z     0.00015  0.57834  0.02843  0.00775 -0.00007  0.64883
    H11      X    -0.09249  0.00003 -0.00001 -0.00001 -0.09423 -0.00001
    H11      Y    -0.20169  0.00007 -0.00003 -0.00002 -0.25956 -0.00003
    H11      Z    -0.00010 -0.30215 -0.01347 -0.00093 -0.00006  0.54078
    H12      X    -0.21010  0.00006  0.00003  0.00002  0.22477  0.00003
    H12      Y     0.10799 -0.00003 -0.00004 -0.00003 -0.33859 -0.00004
    H12      Z    -0.00008 -0.05806  0.72316 -0.51893 -0.00005  0.00423
    H13      X    -0.09131  0.00002  0.00001  0.00001  0.04555  0.00001
    H13      Y    -0.37572  0.00011  0.00001  0.00002  0.31139  0.00004
    H13      Z     0.00006  0.02870 -0.27601 -0.61410  0.00012  0.00032
    H14      X     0.07657 -0.00002 -0.00001 -0.00001  0.02315  0.00000
    H14      Y    -0.11577  0.00004 -0.00003 -0.00000  0.12370  0.00001
    H14      Z    -0.00007 -0.02008  0.19858  0.12910  0.00009 -0.00389
  
  vibration #           13       14       15       16       17       18
                  -------- -------- -------- -------- -------- --------
  frequencies       923.31   938.07   982.66   995.80  1076.95  1127.13
  symmetries       Ap       App      App      App      Ap       Ap      
  intensities         1.11    17.91    10.12     7.90    43.29    73.82
  reduc. mass         0.85     0.53     0.33     1.10     2.23     1.70
  force const         0.43     0.27     0.19     0.64     1.52     1.27
    C1       X    -0.07365 -0.00001 -0.00001  0.00002 -0.00739 -0.06415
    C1       Y    -0.06681 -0.00001 -0.00000  0.00000  0.01273 -0.00883
    C1       Z     0.00001  0.00113 -0.01283  0.01749 -0.00000 -0.00000
    C2       X    -0.05205 -0.00001  0.00000 -0.00001  0.06238  0.13325
    C2       Y    -0.02927 -0.00000 -0.00000  0.00000  0.00304  0.00301
    C2       Z    -0.00001 -0.00337 -0.01952 -0.11986 -0.00001 -0.00001
    C8       X     0.07433  0.00000 -0.00000  0.00001 -0.01383 -0.14197
    C8       Y     0.10586  0.00002 -0.00000  0.00001 -0.14920  0.04444
    C8       Z     0.00001  0.00216 -0.06914  0.13805  0.00002  0.00002
    O9       X     0.04017  0.00002  0.00000 -0.00000 -0.05836  0.02838
    O9       Y     0.04274  0.00001  0.00000 -0.00001  0.11751 -0.08288
    O9       Z    -0.00001 -0.00161  0.01303 -0.03103 -0.00000 -0.00000
    H5       X     0.09730 -0.00504  0.19580 -0.43221 -0.03680 -0.12871
    H5       Y     0.18727 -0.01828  0.02334 -0.02754 -0.11804 -0.01709
    H5       Z     0.00108 -0.00094  0.07491 -0.17204 -0.00964  0.01470
    H6       X     0.09739  0.00505 -0.19581  0.43223 -0.03672 -0.12860
    H6       Y     0.18726  0.01833 -0.02334  0.02755 -0.11802 -0.01702
    H6       Z    -0.00113 -0.00094  0.07491 -0.17203  0.00962 -0.01473
    C12      X    -0.01435  0.00000  0.00000 -0.00001  0.06679  0.01484
    C12      Y    -0.02542 -0.00001  0.00000 -0.00000  0.01010  0.00499
    C12      Z    -0.00001  0.08531 -0.00010 -0.00155 -0.00001  0.00000
    C13      X    -0.04334 -0.00002 -0.00000  0.00001 -0.06488  0.00610
    C13      Y    -0.06631 -0.00002 -0.00000  0.00000 -0.04448  0.03209
    C13      Z    -0.00000  0.00229  0.00024 -0.00075  0.00000 -0.00000
    H9       X    -0.00178 -0.00001  0.00001 -0.00003  0.17189  0.25645
    H9       Y     0.09402 -0.00001  0.00002 -0.00004  0.23346  0.27344
    H9       Z    -0.00000  0.01086  0.64404  0.36457  0.00001  0.00001
    H10      X     0.17617  0.00001  0.00003 -0.00005  0.02925  0.10790
    H10      Y    -0.39939 -0.00004 -0.00005  0.00008 -0.02876 -0.22598
    H10      Z     0.00000 -0.00612 -0.34314 -0.03774  0.00001  0.00001
    H11      X     0.09653  0.00001  0.00002 -0.00003  0.03428  0.08161
    H11      Y     0.26304  0.00002  0.00005 -0.00009  0.09576  0.27555
    H11      Z    -0.00004  0.00238  0.55182  0.07867 -0.00001 -0.00002
    H12      X     0.15720  0.00006  0.00001 -0.00001  0.14606 -0.04188
    H12      Y    -0.26249 -0.00010 -0.00001  0.00002 -0.24686  0.08281
    H12      Z    -0.00005  0.24615 -0.00829  0.00465 -0.00000 -0.00000
    H13      X     0.02806  0.00001  0.00000 -0.00000  0.01457  0.00183
    H13      Y     0.16838  0.00009  0.00001 -0.00002  0.21823  0.02501
    H13      Z     0.00011 -0.49268  0.00233  0.01236  0.00001  0.00000
    H14      X     0.01010  0.00002  0.00000 -0.00001  0.09092  0.01930
    H14      Y     0.05936  0.00004  0.00001 -0.00001  0.09748  0.01732
    H14      Z     0.00015 -0.77528  0.00343  0.01665  0.00002 -0.00001
  
  vibration #           19       20       21       22       23       24
                  -------- -------- -------- -------- -------- --------
  frequencies      1203.20  1204.06  1270.63  1308.29  1333.08  1393.38
  symmetries       Ap       App      Ap       Ap       Ap       Ap      
  intensities       228.20     0.98     0.24     1.53    91.02    10.13
  reduc. mass         3.44     0.46     0.65     0.52     0.48     0.34
  force const         2.93     0.40     0.61     0.52     0.50     0.39
    C1       X     0.00037 -0.00000 -0.08181 -0.00233 -0.00844  0.00464
    C1       Y     0.01173 -0.00001  0.05570  0.01016  0.03156  0.00016
    C1       Z    -0.00000 -0.00494 -0.00000 -0.00000  0.00000  0.00000
    C2       X    -0.02485  0.00002  0.09377  0.00379  0.00634 -0.00953
    C2       Y    -0.00119  0.00000 -0.00690 -0.00924 -0.03915 -0.03460
    C2       Z     0.00002  0.03148 -0.00000 -0.00000  0.00000  0.00000
    C8       X     0.02366 -0.00003  0.02127 -0.02089 -0.05311 -0.01639
    C8       Y     0.04493 -0.00003 -0.00503 -0.02638 -0.10069 -0.00591
    C8       Z     0.00003  0.03835  0.00001  0.00000 -0.00000 -0.00000
    O9       X    -0.09821  0.00007 -0.00460 -0.01944  0.03740  0.00028
    O9       Y    -0.11006  0.00008  0.02416 -0.01781  0.00782 -0.03163
    O9       Z    -0.00003 -0.04255 -0.00000  0.00000 -0.00000  0.00000
    H5       X     0.04942  0.02056 -0.02012  0.03031  0.15181  0.07587
    H5       Y     0.05805  0.68117 -0.16686  0.14067  0.49858  0.08361
    H5       Z     0.00731 -0.04159 -0.00428  0.01413  0.05250  0.04336
    H6       X     0.04938 -0.02064 -0.02008  0.03032  0.15181  0.07587
    H6       Y     0.05706 -0.68125 -0.16691  0.14066  0.49858  0.08362
    H6       Z    -0.00736 -0.04159  0.00427 -0.01413 -0.05251 -0.04336
    C12      X     0.16672 -0.00012 -0.01339 -0.04361  0.00237  0.03336
    C12      Y     0.03402 -0.00002  0.00371  0.03860 -0.04802  0.08131
    C12      Z    -0.00001 -0.00214 -0.00000 -0.00000  0.00000  0.00000
    C13      X    -0.05506  0.00004  0.00186  0.06222 -0.00886 -0.03794
    C13      Y     0.02000 -0.00001 -0.00581 -0.04267  0.01692  0.05660
    C13      Z     0.00000  0.00034  0.00000  0.00000 -0.00000 -0.00000
    H9       X    -0.09436  0.00009 -0.22044 -0.00438 -0.02523  0.02449
    H9       Y    -0.14997  0.00015 -0.71781 -0.02950 -0.12462  0.03646
    H9       Z     0.00000  0.00523  0.00000 -0.00000  0.00000 -0.00000
    H10      X    -0.01331  0.00001  0.02654 -0.02443 -0.10541 -0.11893
    H10      Y     0.02797 -0.00002 -0.07254  0.04306  0.17387  0.17256
    H10      Z    -0.00000 -0.00206  0.00000 -0.00000  0.00000 -0.00000
    H11      X    -0.00970  0.00001  0.06000  0.01601  0.07000  0.07770
    H11      Y    -0.00625  0.00000  0.34334  0.05366  0.21508  0.16401
    H11      Z     0.00002  0.01722 -0.00001 -0.00000 -0.00000  0.00000
    H12      X     0.01828 -0.00001  0.02104  0.12492 -0.14205  0.42823
    H12      Y    -0.03397  0.00003 -0.02707 -0.11660  0.15479 -0.40722
    H12      Z     0.00002  0.02167  0.00000  0.00000 -0.00000  0.00000
    H13      X     0.02866 -0.00002 -0.00684 -0.02469  0.03721 -0.16422
    H13      Y     0.31866 -0.00023 -0.04044 -0.37728  0.20345 -0.43158
    H13      Z    -0.00001 -0.02144  0.00000 -0.00000 -0.00000 -0.00000
    H14      X     0.21045 -0.00015 -0.02542  0.17033  0.00275 -0.09538
    H14      Y     0.17143 -0.00012 -0.03107  0.77951 -0.08432 -0.36100
    H14      Z     0.00001 -0.01352 -0.00000  0.00000 -0.00000  0.00000
  
  vibration #           25       26       27       28       29       30
                  -------- -------- -------- -------- -------- --------
  frequencies      1418.28  1459.79  1677.62  1686.99  2906.32  2940.35
  symmetries       Ap       Ap       Ap       Ap       Ap       App     
  intensities        12.73    22.87    58.59    86.47    44.64    39.58
  reduc. mass         0.40     0.46     2.28     2.21     0.48     0.52
  force const         0.47     0.58     3.78     3.70     2.40     2.67
    C1       X    -0.01456  0.00322 -0.00853 -0.00830  0.00016  0.00000
    C1       Y     0.03459 -0.01088  0.12593  0.12556 -0.00019 -0.00000
    C1       Z    -0.00000 -0.00000  0.00000  0.00000 -0.00000  0.00046
    C2       X     0.02625 -0.00540 -0.00802 -0.01095  0.00108 -0.00000
    C2       Y     0.08897 -0.00089 -0.13778 -0.14427 -0.00101 -0.00000
    C2       Z    -0.00000  0.00000  0.00000  0.00000 -0.00000 -0.00064
    C8       X    -0.04036 -0.06545  0.00009  0.01368 -0.06281 -0.00000
    C8       Y    -0.05663  0.02823  0.00925  0.03438  0.01033  0.00000
    C8       Z     0.00000 -0.00000 -0.00000 -0.00000  0.00000 -0.09008
    O9       X     0.00540 -0.00839  0.00334  0.00107 -0.00023  0.00000
    O9       Y    -0.00873  0.01340 -0.01601  0.02234  0.00282 -0.00000
    O9       Z    -0.00000  0.00000  0.00000  0.00000 -0.00000  0.00011
    H5       X     0.10281  0.49164 -0.00622  0.01149  0.37416 -0.39131
    H5       Y     0.15797 -0.22321  0.01985 -0.06929 -0.08113  0.07517
    H5       Z     0.06570  0.40124 -0.00694  0.01954 -0.56974  0.53758
    H6       X     0.10281  0.49164 -0.00623  0.01149  0.37415  0.39132
    H6       Y     0.15797 -0.22321  0.01985 -0.06929 -0.08113 -0.07517
    H6       Z    -0.06570 -0.40124  0.00694 -0.01954  0.56973  0.53759
    C12      X     0.00996 -0.00940 -0.01398  0.01047  0.00165  0.00000
    C12      Y     0.01210  0.00158  0.14715 -0.14237 -0.00227  0.00000
    C12      Z    -0.00000 -0.00000  0.00000  0.00000 -0.00000  0.00066
    C13      X    -0.01194  0.00813  0.03038 -0.02757  0.00033 -0.00000
    C13      Y     0.02368 -0.01811 -0.11843  0.11068  0.00058  0.00000
    C13      Z    -0.00000  0.00000 -0.00000 -0.00000 -0.00000 -0.00001
    H9       X    -0.08490  0.01220  0.09801  0.10340 -0.00249 -0.00001
    H9       Y    -0.15868  0.03778  0.05849  0.07224  0.00452  0.00000
    H9       Z     0.00000 -0.00000 -0.00000 -0.00000  0.00000 -0.00469
    H10      X     0.35966 -0.03171  0.13714  0.13341  0.00837  0.00000
    H10      Y    -0.48224  0.03755 -0.04307 -0.03688  0.00335  0.00000
    H10      Z     0.00000  0.00000  0.00000  0.00000  0.00000  0.00114
    H11      X    -0.24924  0.02440 -0.13548 -0.13289 -0.01129 -0.00000
    H11      Y    -0.47418  0.03444 -0.09543 -0.09029  0.00292  0.00000
    H11      Z    -0.00000  0.00000  0.00000  0.00000  0.00000 -0.00301
    H12      X     0.10882 -0.05646 -0.13110  0.11810  0.00279 -0.00000
    H12      Y    -0.09490  0.04372  0.01461 -0.00835  0.00375 -0.00000
    H12      Z    -0.00000  0.00000  0.00000 -0.00000  0.00000 -0.00120
    H13      X    -0.04653  0.02707  0.11099 -0.10286 -0.00229 -0.00000
    H13      Y    -0.10559  0.04903  0.09794 -0.08934 -0.00054 -0.00000
    H13      Z     0.00000  0.00000 -0.00000 -0.00000  0.00000  0.00080
    H14      X    -0.01419 -0.00522 -0.11946  0.11092 -0.03008 -0.00000
    H14      Y    -0.08461  0.03193 -0.12912  0.12747  0.01483  0.00000
    H14      Z    -0.00000  0.00000  0.00000  0.00000  0.00000 -0.00283
  
  vibration #           31       32       33       34       35       36
                  -------- -------- -------- -------- -------- --------
  frequencies      3065.53  3086.29  3110.69  3122.49  3178.71  3220.14
  symmetries       Ap       Ap       Ap       Ap       Ap       Ap      
  intensities        22.03     9.34     1.92     0.00    11.03     5.22
  reduc. mass         0.89     0.51     0.86     0.49     0.57     0.55
  force const         4.94     2.85     4.88     2.80     3.38     3.36
    C1       X     0.00009 -0.02083 -0.01644  0.00028  0.08986  0.00003
    C1       Y    -0.00058  0.06282  0.01156 -0.00018  0.02163 -0.00001
    C1       Z     0.00000  0.00000 -0.00000 -0.00000 -0.00000 -0.00000
    C2       X    -0.00046 -0.01061  0.07226 -0.00089  0.01151 -0.00002
    C2       Y     0.00019 -0.00281 -0.03732  0.00051 -0.00622  0.00002
    C2       Z     0.00000  0.00000 -0.00000 -0.00000 -0.00000 -0.00000
    C8       X    -0.00191 -0.00135 -0.00023  0.00020 -0.00054 -0.00004
    C8       Y     0.00107  0.00021 -0.00168  0.00017 -0.00054 -0.00005
    C8       Z    -0.00000 -0.00000  0.00000 -0.00000  0.00000  0.00000
    O9       X    -0.00050  0.00016  0.00010 -0.00047  0.00005 -0.00033
    O9       Y     0.00002  0.00012  0.00030 -0.00023  0.00012 -0.00062
    O9       Z    -0.00000  0.00000 -0.00000  0.00000 -0.00000 -0.00000
    H5       X     0.01264  0.00642 -0.00036  0.00003 -0.00062 -0.00011
    H5       Y    -0.00749  0.00005  0.00026 -0.00014 -0.00194  0.00050
    H5       Z    -0.01915 -0.00793  0.00228  0.00015  0.00024  0.00016
    H6       X     0.01264  0.00642 -0.00037  0.00003 -0.00062 -0.00011
    H6       Y    -0.00749  0.00004  0.00026 -0.00014 -0.00194  0.00050
    H6       Z     0.01915  0.00793 -0.00229 -0.00015 -0.00024 -0.00016
    C12      X    -0.07706 -0.00050 -0.00091  0.01154 -0.00022  0.00598
    C12      Y     0.02764  0.00011  0.00022 -0.01193  0.00001 -0.00165
    C12      Z    -0.00000  0.00000 -0.00000  0.00000 -0.00000 -0.00000
    C13      X     0.00357  0.00003 -0.00021 -0.02604  0.00001  0.08909
    C13      Y     0.00354  0.00012  0.00079  0.06143 -0.00001  0.03083
    C13      Z     0.00000 -0.00000 -0.00000  0.00000 -0.00000  0.00000
    H9       X     0.00905  0.13110 -0.85113  0.00971 -0.11998  0.00008
    H9       Y    -0.00220 -0.05691  0.38471 -0.00458  0.05483 -0.00020
    H9       Z     0.00000 -0.00000  0.00000 -0.00000  0.00000 -0.00000
    H10      X     0.00390 -0.45615  0.02329 -0.00023 -0.61331 -0.00011
    H10      Y     0.00251 -0.32647  0.01900 -0.00012 -0.46944 -0.00007
    H10      Z    -0.00000  0.00000 -0.00000 -0.00000  0.00000 -0.00000
    H11      X    -0.00565  0.70030  0.16801 -0.00274 -0.46593 -0.00024
    H11      Y     0.00263 -0.33596 -0.08263  0.00135  0.23968  0.00013
    H11      Z     0.00000  0.00000 -0.00000  0.00000 -0.00000  0.00000
    H12      X    -0.08811 -0.00097 -0.00618 -0.43121  0.00016 -0.50188
    H12      Y    -0.08435 -0.00085 -0.00596 -0.43020  0.00025 -0.52365
    H12      Z    -0.00000  0.00000 -0.00000 -0.00000 -0.00000 -0.00000
    H13      X     0.06004  0.00087  0.00897  0.71703 -0.00010 -0.57309
    H13      Y    -0.01493 -0.00027 -0.00241 -0.19428  0.00002  0.16904
    H13      Z    -0.00000 -0.00000  0.00000 -0.00000  0.00000 -0.00000
    H14      X     0.90556  0.00548  0.00754 -0.10772  0.00145 -0.05083
    H14      Y    -0.26834 -0.00131 -0.00334  0.03639 -0.00057  0.01668
    H14      Z     0.00000  0.00000 -0.00000 -0.00000 -0.00000 -0.00000
  
  Number of imaginary frequencies:   2
   
  Writing vibrational animation data to ether.vib
  Writing IR vibrational spectrum data to ether_vib.spm
  rotational symmetry number:  1

  rotational temperatures (K):      1.135029      0.067042      0.063840
   
  The Quasi-Harmonic approximation will be applied to compute
  vibrational constributions to thermodynamic properties.
  Frequencies will be adjusted to a minimum value of  100.00 cm^-1.

    2 vibrational frequencies below   0.0 cm-1 not included in zero-point
  energy or thermochemical analysis.  Set freqcut to change the frequency
  cutoff value.

  vibrational temperatures:
       mode:      3        4        5        6        7        8
  temp. (K):   143.88   220.50   503.28   596.88   762.70   774.88
   
       mode:      9       10       11       12       13       14
  temp. (K):   971.78  1119.85  1271.08  1279.91  1328.43  1349.67
   
       mode:     15       16       17       18       19       20
  temp. (K):  1413.82  1432.74  1549.50  1621.69  1731.14  1732.37
   
       mode:     21       22       23       24       25       26
  temp. (K):  1828.15  1882.33  1918.00  2004.76  2040.59  2100.32
   
       mode:     27       28       29       30       31       32
  temp. (K):  2413.72  2427.20  4181.55  4230.51  4410.60  4440.48
   
       mode:     33       34       35       36
  temp. (K):  4475.58  4492.56  4573.45  4633.06
   
   
  Thermodynamic properties calculated assuming an ideal gas

  In the table below, the units for temperature
  are kelvins, the units for U, H, and G are
  kcal/mol and the units for Cv and S are cal/(mol K)

  The zero point energy (ZPE):     71.397 kcal/mol
  is not included in U, H, or G in the table below
  
 
  =============================================================================
  Thermodynamic properties for P = 1.00E+00 atm, calculated at   1 temperatures


  T =   298.15 K, P = 1.00E+00 atm
   
                  U         Cv          S          H          G        ln(Q)
              =========  =========  =========  =========  =========  =========
  trans.          0.889      2.981     39.200      1.481    -10.206   17.22638
  rot.            0.889      2.981     26.395      0.889     -6.981   11.78234
  vib.            1.923     15.285     10.964      1.923     -1.346    2.27198
  elec.           0.000      0.000      0.000      0.000      0.000    0.00000
  ----------------------------------------------------------------------------
  total           3.700     21.247     76.559      4.293    -18.533   31.28070
   
   Total internal energy, Utot(SCFE + ZPE + U):    -270.043614 hartrees
              Total enthalpy, Htot (Utot + pV):    -270.042670 hartrees
    Total Gibbs free energy, Gtot (Htot - T*S):    -270.079045 hartrees
   
  Peak memory usage:   2798 Mb
  
  end of program freq
   
 Time(freq)  user:        4.6  user+sys:        4.6  wallclock:        2.5

 Total cpu seconds     user:     230.575   user+sys:     230.575
  
 Total elapsed time:    69 seconds

Job ether completed on hpc-89-11.cm.cluster at Tue Apr 18 20:05:00 2023
