Command:  /groups/wag/programs/Schrodinger_2020_3/jaguar run -WAIT -PARALLEL 8 ether.in
Release:  2020-3
Exec:     /groups/wag/programs/Schrodinger_2020_3/jaguar-v10.9/bin/Linux-x86_64
Host:     hpc-89-11.cm.cluster
JobId:    hpc-89-11-0-643f5a13
JobDir:   /central/scratch/musgrave/pkozlows/ether#hpc-89-11-0-643f5a13
Date:     Tue Apr 18 20:03:50 2023

Contents of /central/scratch/musgrave/pkozlows/ether#hpc-89-11-0-643f5a13:
/central/scratch/musgrave/pkozlows/ether#hpc-89-11-0-643f5a13/.write_dir.json
/central/scratch/musgrave/pkozlows/ether#hpc-89-11-0-643f5a13/hpc-89-11-0-643f5a13.nodes
/central/scratch/musgrave/pkozlows/ether#hpc-89-11-0-643f5a13/ether.recover
/central/scratch/musgrave/pkozlows/ether#hpc-89-11-0-643f5a13/ether.log
/central/scratch/musgrave/pkozlows/ether#hpc-89-11-0-643f5a13/hpc-89-11-0-643f5a13.mpinodes
/central/scratch/musgrave/pkozlows/ether#hpc-89-11-0-643f5a13/hpc-89-11-0-643f5a13.recover
/central/scratch/musgrave/pkozlows/ether#hpc-89-11-0-643f5a13/ether.in
/central/scratch/musgrave/pkozlows/ether#hpc-89-11-0-643f5a13/hpc-89-11-0-643f5a13

Executing subprocess:
/groups/wag/programs/Schrodinger_2020_3/jaguar-v10.9/bin/Linux-x86_64/jexec ether.in -T 8 -out /central/scratch/musgrave/pkozlows/ether#hpc-89-11-0-643f5a13 -cwd

Job ether started on hpc-89-11.cm.cluster at Tue Apr 18 20:03:51 2023
jobid: hpc-89-11-0-643f5a13 
Jaguar version 10.9, release 139
 Using up to   8 threads per process
Molecular Point Group: Cs      
Point Group used: Cs
pre (input checking) done.
onee (1-electron integrals) done.
hfig (HF initial guess) done.
probe (project orbitals) done.
grid (grid generation) done.
rwr (Q operators) done.
scf type: DFT=PBE(X+LC)+PW91 (PBE-D3)
  
       i  u  d  i  g
       t  p  i  c  r                                 RMS    maximum
       e  d  i  u  i                       energy  density   DIIS  
       r  t  s  t  d       total energy    change  change    error 
  
etot    1  N  N  5  M    -269.28953930055           7.1E-03  1.3E-01
etot    2  Y  Y  6  M    -269.99397550256  7.0E-01  5.4E-03  5.6E-02
etot    3  Y  Y  6  M    -270.01015688213  1.6E-02  3.3E-03  6.2E-02
etot    4  N  Y  2  U    -270.12513989648  1.1E-01  1.7E-03  2.6E-02
etot    5  Y  Y  6  M    -270.15374828149  2.9E-02  6.2E-04  1.2E-02
etot    6  N  Y  2  U    -270.15705357618  3.3E-03  3.5E-04  3.5E-03
etot    7  Y  Y  6  M    -270.15744386401  3.9E-04  1.6E-04  1.8E-03
etot    8  Y  Y  6  M    -270.15741159683 -3.2E-05  7.3E-05  1.5E-03
etot    9  N  Y  2  U    -270.15755835723  1.5E-04  1.7E-05  2.5E-04
etot   10  N  Y  2  U    -270.15756063482  2.3E-06  4.9E-06  5.7E-05
etot   11  N  N  2  U    -270.15756083905  2.0E-07  0.0E+00  0.0E+00
scf (DFT) done.
der1a (1-e 1st deriv.) done.
rwr (1st deriv. Q) done.
der1b (2-e 1st deriv.) done.
  Geometry optimization step   1
  Total energy:      -270.16145526408 hartrees
  gradient maximum:        1.1923E-02 .  (  4.5000E-04 )
  gradient rms:            5.6522E-03 .  (  3.0000E-04 )
  displacement maximum:    3.7881E-02 .  (  1.8000E-03 )
  displacement rms:        1.7976E-02 .  (  1.2000E-03 )
  
  predicted energy change: -1.7359E-03
  step size:     0.10785
  trust radius:  0.30000
---------------- geometry iteration   1 complete ----------------
geopt (optimize geometry) done.
onee (1-electron integrals) done.
probe (project orbitals) done.
grid (grid generation) done.
rwr (Q operators) done.
  
       i  u  d  i  g
       t  p  i  c  r                                 RMS    maximum
       e  d  i  u  i                       energy  density   DIIS  
       r  t  s  t  d       total energy    change  change    error 
  
etot    1  N  N  2  U    -270.15804692562           3.5E-04  4.4E-03
etot    2  Y  Y  6  M    -270.15919208820  1.1E-03  1.4E-04  1.3E-03
etot    3  Y  Y  6  M    -270.15915023370 -4.2E-05  9.1E-05  1.6E-03
etot    4  Y  Y  6  M    -270.15926662835  1.2E-04  3.7E-05  6.5E-04
etot    5  N  Y  2  U    -270.15928648910  2.0E-05  9.9E-06  1.6E-04
etot    6  N  Y  2  U    -270.15928747709  9.9E-07  3.5E-06  7.7E-05
etot    7  N  N  2  U    -270.15928765532  1.8E-07  0.0E+00  0.0E+00
scf (DFT) done.
der1a (1-e 1st deriv.) done.
rwr (1st deriv. Q) done.
der1b (2-e 1st deriv.) done.
  Geometry optimization step   2
  Total energy:      -270.16322465970 hartrees
  energy change:          -1.7694E-03 .  (  5.0000E-05 )
  gradient maximum:        2.4685E-03 .  (  4.5000E-04 )
  gradient rms:            9.7767E-04 .  (  3.0000E-04 )
  displacement maximum:    1.1667E-02 .  (  1.8000E-03 )
  displacement rms:        4.5196E-03 .  (  1.2000E-03 )
  
  predicted energy change: -6.8491E-05
  step size:     0.02712
  trust radius:  0.30000
---------------- geometry iteration   2 complete ----------------
geopt (optimize geometry) done.
onee (1-electron integrals) done.
probe (project orbitals) done.
grid (grid generation) done.
rwr (Q operators) done.
  
       i  u  d  i  g
       t  p  i  c  r                                 RMS    maximum
       e  d  i  u  i                       energy  density   DIIS  
       r  t  s  t  d       total energy    change  change    error 
  
etot    1  N  N  2  U    -270.15928589542           8.8E-05  1.2E-03
etot    2  Y  Y  6  M    -270.15935768914  7.2E-05  2.3E-05  1.8E-04
etot    3  N  Y  2  U    -270.15935273176 -5.0E-06  1.6E-05  3.0E-04
etot    4  N  Y  2  U    -270.15935605676  3.3E-06  4.6E-06  7.2E-05
etot    5  N  N  2  U    -270.15935629031  2.3E-07  0.0E+00  0.0E+00
scf (DFT) done.
der1a (1-e 1st deriv.) done.
rwr (1st deriv. Q) done.
der1b (2-e 1st deriv.) done.
  Geometry optimization step   3
  Total energy:      -270.16328927613 hartrees
  energy change:          -6.4616E-05 .  (  5.0000E-05 )
  gradient maximum:        9.2956E-04 .  (  4.5000E-04 )
  gradient rms:            3.6587E-04 .  (  3.0000E-04 )
  displacement maximum:    5.9404E-03 .  (  1.8000E-03 )
  displacement rms:        1.9034E-03 .  (  1.2000E-03 )
  
  predicted energy change: -1.0911E-05
  step size:     0.01142
  trust radius:  0.30000
---------------- geometry iteration   3 complete ----------------
geopt (optimize geometry) done.
onee (1-electron integrals) done.
probe (project orbitals) done.
grid (grid generation) done.
rwr (Q operators) done.
  
       i  u  d  i  g
       t  p  i  c  r                                 RMS    maximum
       e  d  i  u  i                       energy  density   DIIS  
       r  t  s  t  d       total energy    change  change    error 
  
etot    1  N  N  2  U    -270.15934097094           4.4E-05  6.5E-04
etot    2  N  Y  2  U    -270.15935826403  1.7E-05  1.3E-05  1.2E-04
etot    3  N  Y  2  U    -270.15935707874 -1.2E-06  9.4E-06  2.0E-04
etot    4  N  Y  2  U    -270.15935861218  1.5E-06  2.2E-06  4.9E-05
etot    5  N  N  2  U    -270.15935869666  8.4E-08  0.0E+00  0.0E+00
scf (DFT) done.
der1a (1-e 1st deriv.) done.
rwr (1st deriv. Q) done.
der1b (2-e 1st deriv.) done.
  Geometry optimization step   4
  Total energy:      -270.16328947694 hartrees
  energy change:          -2.0081E-07 !  (  5.0000E-05 )
  gradient maximum:        2.4123E-04 *  (  4.5000E-04 )
  gradient rms:            9.4017E-05 *  (  3.0000E-04 )
  displacement maximum:    8.6782E-04 *  (  1.8000E-03 )
  displacement rms:        2.7855E-04 *  (  1.2000E-03 )
  
  predicted energy change: -4.1741E-07
  step size:     0.00167
  trust radius:  0.30000
------------- final geometry iteration   4 complete -------------
geopt (optimize geometry) done.
cutabab2 (abab integrals) done.
der2a (1-e JK-1st deriv.) done.
grid (grid generation) done.
der2b (2-e JK-1st deriv.) done.
der2nda (1-e 2nd deriv.) done.
der2ndb (2-e 2nd deriv.) done.
rwr (Q operators) done.
cphfa (gradient of wave function) done.
freq (vib. frequencies) done.
Job ether completed on hpc-89-11.cm.cluster at Tue Apr 18 20:05:00 2023
Timer (jaguar_backend.py) : 69.11 secs (0 hrs, 01 mins, 09 secs)
Finished:   Tue Apr 18 20:05:00 2023
