/groups/wag/pkozlows/miniconda3/envs/pyscf/lib/python3.11/site-packages/pyscf/dft/libxc.py:771: UserWarning: Since PySCF-2.3, B3LYP (and B3P86) are changed to the VWN-RPA variant, corresponding to the original definition by Stephens et al. (issue 1480) and the same as the B3LYP functional in Gaussian. To restore the VWN5 definition, you can put the setting "B3LYP_WITH_VWN5 = True" in pyscf_conf.py
  warnings.warn('Since PySCF-2.3, B3LYP (and B3P86) are changed to the VWN-RPA variant, '
/central/home/pkozlows/ch121b/gan/dft/g0w0/pbe/dzvp/111/2/dz1g.py:8: UserWarning: Use ase.build.bulk() instead
  ase_cell = bulk('GaN', 'wurtzite', a=3.19, c=5.19)
#INFO: **** input file is /central/home/pkozlows/ch121b/gan/dft/g0w0/pbe/dzvp/111/2/dz1g.py ****
import os
import numpy as np
import pyscf.pbc.tools.pyscf_ase as pyscf_ase
from ase.lattice import bulk
from pyscf.pbc import gto, scf, dft
from pyscf.pbc.gw import krgw_ac

ase_cell = bulk('GaN', 'wurtzite', a=3.19, c=5.19)

cell = gto.Cell()
cell.atom = pyscf_ase.ase_atoms_to_pyscf(ase_cell)
cell.a = np.array(ase_cell.cell)
cell.exp_to_discard = 0.1

cell.basis = 'gth-dzvp'
cell.pseudo = 'gth-pade'
cell.verbose = 5
cell.rcut = 93
cell.build()

kpts = cell.make_kpts([1,1,1])
kmf = dft.KRKS(cell).density_fit()
kmf.kpts = kpts
kmf.xc = 'pbe'
kmf.kernel()

# Default is AC frequency integration
mygw = krgw_ac.KRGWAC(kmf)
mygw.kernel()

# # Extracting HOMO and LUMO energies
nocc = cell.nelectron // 2  # Number of occupied orbitals

au2ev = 27.211

dft_homo = max(kmf.mo_energy[0][:nocc])
dft_lumo = min(kmf.mo_energy[0][nocc:])
dft_gap = dft_lumo - dft_homo
print("DFT HOMO energy:", dft_lumo*au2ev)
print("DFT LUMO energy:", dft_homo*au2ev)
print("DFT Band gap at Gamma point [eV]:", dft_gap*au2ev)

gw_homo = max(mygw.mo_energy[0][:nocc])
gw_lumo = min(mygw.mo_energy[0][nocc:])
gw_gap = gw_lumo - gw_homo
print("GW HOMO energy:", gw_lumo*au2ev)
print("GW LUMO energy:", gw_homo*au2ev)
print("GW Band gap at Gamma point [eV]:", gw_gap*au2ev)
#INFO: ******************** input file end ********************


System: uname_result(system='Linux', node='hpc-83-35.cm.cluster', release='3.10.0-1160.25.1.el7.x86_64', version='#1 SMP Wed Apr 28 21:49:45 UTC 2021', machine='x86_64')  Threads 20
Python 3.11.5 (main, Sep 11 2023, 13:54:46) [GCC 11.2.0]
numpy 1.26.0  scipy 1.11.3
Date: Wed Nov 29 01:36:07 2023
PySCF version 2.4.0
PySCF path  /groups/wag/pkozlows/miniconda3/envs/pyscf/lib/python3.11/site-packages/pyscf

[ENV] PYSCF_CONFIG_FILE /home/pkozlows
[CONFIG] conf_file /home/pkozlows/.pyscf_conf.py
[INPUT] verbose = 5
[INPUT] max_memory = 1466904 
[INPUT] num. atoms = 4
[INPUT] num. electrons = 36
[INPUT] charge = 0
[INPUT] spin (= nelec alpha-beta = 2S) = 0
[INPUT] symmetry False subgroup None
[INPUT] Mole.unit = angstrom
[INPUT] Symbol           X                Y                Z      unit          X                Y                Z       unit  Magmom
[INPUT]  1 Ga     0.000000000000   0.000000000000   0.000000000000 AA    0.000000000000   0.000000000000   0.000000000000 Bohr   0.0
[INPUT]  2 N     -0.000000000000   1.841747358715   0.643929030186 AA   -0.000000000000   3.480398098612   1.216849510709 Bohr   0.0
[INPUT]  3 Ga    -0.000000000000   1.841747358715   2.595000000000 AA   -0.000000000000   3.480398098612   4.903839293246 Bohr   0.0
[INPUT]  4 N      0.000000000000   0.000000000000   3.238929030186 AA    0.000000000000   0.000000000000   6.120688803955 Bohr   0.0
[INPUT] ---------------- BASIS SET ---------------- 
[INPUT] l, kappa, [nprim/nctr], expnt,             c_1 c_2 ...
[INPUT] N
[INPUT] 0    0    [4    /2   ]  6.1526903413      0.1506300537    0
                                1.823633228       -0.0360100734    0
                                0.567662887       -0.6942023212    0
                                0.1628222852      -0.3878929987    1
[INPUT] 1    0    [4    /2   ]  6.1526903413      -0.0950603476    0
                                1.823633228       -0.2918864295    0
                                0.567662887       -0.473905005    0
                                0.1628222852      -0.389341867    1
[INPUT] 2    0    [1    /1   ]  0.817                1
[INPUT] Ga
[INPUT] 0    0    [6    /2   ]  7.06665397037     0.00403882881 -0.031816598052
                                3.42836918        -0.04992601521 0.005769897361
                                1.43006411438     0.270487560795 0.375790997895
                                0.571610928613    0.114461485481 0.388650732034
                                0.232196966975    -0.765662388169 -1.77913961825
                                0.076561670688    -0.4118900947 1.82974373073
[INPUT] 1    0    [6    /2   ]  7.06665397037     0.000167446202 0.029367472355
                                3.42836918        0.003362568505 -0.090542574365
                                1.43006411438     0.130532105798 -0.084206693559
                                0.571610928613    -0.096032824634 0.052258004145
                                0.232196966975    -0.807329497232 1.28873241299
                                0.076561670688    -0.419386452377 -1.21706825483
[INPUT] 2    0    [6    /2   ]  7.06665397037     -0.311164169605 -0.152377671375
                                3.42836918        -0.386388805667 -0.200456714008
                                1.43006411438     -0.341437057173 -0.304563164958
                                0.571610928613    -0.20460821239 0.349719373167
                                0.232196966975    -0.056129936831 0.455579311293
                                0.076561670688    -0.001205250841 0.817649971475
[INPUT] 3    0    [6    /1   ]  7.06665397037     0.008402101637
                                3.42836918        -0.016601774058
                                1.43006411438     0.049257564549
                                0.571610928613    0.451920686398
                                0.232196966975    0.322063208269
                                0.076561670688    1.01855320748

Ewald components = 6.77773183084737, -128.779455527716, 5.42224205397643
nuclear repulsion = -116.579481642892
number of shells = 14
number of NR pGTOs = 234
number of NR cGTOs = 76
basis = gth-dzvp
ecp = {}
CPU time:         1.18
Discarded 8 diffused primitive functions, 0 contracted functions
lattice vectors  a1 [6.028226337, 0.000000000, 0.000000000]
                 a2 [-3.014113169, 5.220597148, 0.000000000]
                 a3 [0.000000000, 0.000000000, 9.807678586]
dimension = 3
low_dim_ft_type = None
Cell volume = 308.657
exp_to_discard = 0.1
rcut = 93 (nimgs = [18 18 10])
lattice sum = 20447 cells
precision = 1e-08
pseudo = gth-pade
ke_cutoff = 887.7119060369721
    = [ 83  83 133] mesh (916237 PWs)


******** <class 'pyscf.pbc.dft.krks.KRKS'> ********
method = KRKS
initial guess = minao
damping factor = 0
level_shift factor = 0
DIIS = <class 'pyscf.scf.diis.CDIIS'>
diis_start_cycle = 1
diis_space = 8
SCF conv_tol = 1e-07
SCF conv_tol_grad = None
SCF max_cycles = 50
direct_scf = True
direct_scf_tol = 1e-13
chkfile to save SCF result = /tmp/tmp803_b5ft
max_memory 1466904 MB (current use 104 MB)


******** PBC SCF flags ********
N kpts = 1
kpts = [[0. 0. 0.]]
Exchange divergence treatment (exxdiv) = ewald
Ewald components = 0.00051775335925431, -0.251419253935776, 0.0646100141269025
    madelung (= occupied orbital energy shift) = 0.3725829728992387
    Total energy shift due to Ewald probe charge = -1/2 * Nelec*madelung = -6.70649351219
DF object = <pyscf.pbc.df.df.GDF object at 0x7f39c0c56f90>
XC functionals = pbe
small_rho_cutoff = 1e-07
radial grids: 
    Treutler-Ahlrichs [JCP 102, 346 (1995); DOI:10.1063/1.469408] (M4) radial grids
    
becke partition: Becke, JCP 88, 2547 (1988); DOI:10.1063/1.454033
pruning grids: <function nwchem_prune at 0x7f39c17845e0>
grids dens level: 3
symmetrized grids: False
atomic radii adjust function: <function treutler_atomic_radii_adjust at 0x7f39c1784ae0>
Set gradient conv threshold to 0.000316228
Big error detected in the electron number of initial guess density matrix (Ne/cell = 36.0958)!
  This can cause huge error in Fock matrix and lead to instability in SCF for low-dimensional systems.
  DM is normalized wrt the number of electrons 36.0
kmesh for bvk-cell = [1 1 1]


******** <class 'pyscf.pbc.df.rsdf_builder._RSNucBuilder'> ********
mesh = [11 11 17] (2057 PWs)
ke_cutoff = 13.133402831955515
omega = 0.4461491992296507
exclude_d_aux = False
exclude_dd_block = True
j2c_eig_always = False
has_long_range = True
Set _RSNucBuilder.direct_scf_tol to 7.81e-15
rs_cell.nbas 14 nao 76
No. smooth_bas in rs_cell 0
sup-mol nbas = 3181 cGTO = 17344 pGTO = 46686
sup-mol-ft nbas = 3387 cGTO = 18415 pGTO = 49442
    CPU time for int3c kernel initialization      0.45 sec, wall time      0.02 sec
Set ft_ao cutoff to 4.30028e-11
kmesh for bvk-cell = [1 1 1]
sup-mol nbas = 2145 cGTO = 11748 pGTO = 32361
    CPU time for int3c kernel initialization      0.21 sec, wall time      0.01 sec
    CPU time for int3c kernel initialization      0.18 sec, wall time      0.01 sec
    CPU time for get_pp     29.97 sec, wall time      1.53 sec
atom Ga rad-grids = 90, ang-grids = [ 50  50  50  50  50  50  50  50  50  50  50  50  50  50  50  50  50  50
  50  50  50  50  50  50  50  50  50  50  50  86  86  86  86  86  86  86
  86  86  86  86  86  86  86  86  86 350 350 350 350 350 350 350 350 350
 350 350 434 434 434 434 434 434 434 434 434 434 434 434 434 434 434 434
 434 434 434 434 434 350 350 350 350 350 350 350 350 350 350 350 350 350]
atom N rad-grids = 75, ang-grids = [ 50  50  50  50  50  50  50  50  50  50  50  50  50  50  50  50  50  50
  50  50  50  50  50  86  86  86  86  86  86  86  86  86 266 266 266 266
 266 266 266 302 302 302 302 302 302 302 302 302 302 302 302 302 302 302
 302 302 302 302 266 266 266 266 266 266 266 266 266 266 266 266 266 266
 266 266 266]
tot grids = 69179
cell vol = 308.656876  sum(weights) = 308.656992
Drop grids 20216
    CPU time for setting up grids     29.79 sec, wall time      1.50 sec
nelec by numeric integration = 36.00016900803561
    CPU time for vxc     35.63 sec, wall time      1.79 sec


******** <class 'pyscf.pbc.df.df.GDF'> ********
auxbasis = None
exp_to_discard = 0.1
_cderi_to_save = /tmp/tmpaaj4ksp8
len(kpts) = 1
Even tempered Gaussians are generated as DF auxbasis for  N Ga
  ETB auxbasis for N  [[0, [10.4206262528, 1]], [0, [5.2103131264, 1]], [0, [2.6051565632, 1]], [0, [1.3025782816, 1]], [0, [0.6512891408, 1]], [0, [0.3256445704, 1]], [1, [10.4206262528, 1]], [1, [5.2103131264, 1]], [1, [2.6051565632, 1]], [1, [1.3025782816, 1]], [1, [0.6512891408, 1]], [1, [0.3256445704, 1]], [2, [10.4206262528, 1]], [2, [5.2103131264, 1]], [2, [2.6051565632, 1]], [2, [1.3025782816, 1]], [2, [0.6512891408, 1]], [2, [0.3256445704, 1]], [3, [2.9178162465339725, 1]], [3, [1.4589081232669863, 1]], [3, [0.7294540616334931, 1]], [4, [1.634, 1]]]
  ETB auxbasis for Ga  [[0, [7.4303029432, 1]], [0, [3.7151514716, 1]], [0, [1.8575757358, 1]], [0, [0.9287878679, 1]], [0, [0.46439393395, 1]], [1, [7.4303029432, 1]], [1, [3.7151514716, 1]], [1, [1.8575757358, 1]], [1, [0.9287878679, 1]], [1, [0.46439393395, 1]], [2, [7.4303029432, 1]], [2, [3.7151514716, 1]], [2, [1.8575757358, 1]], [2, [0.9287878679, 1]], [2, [0.46439393395, 1]], [3, [7.4303029432, 1]], [3, [3.7151514716, 1]], [3, [1.8575757358, 1]], [3, [0.9287878679, 1]], [3, [0.46439393395, 1]], [4, [7.4303029432, 1]], [4, [3.7151514716, 1]], [4, [1.8575757358, 1]], [4, [0.9287878679, 1]], [4, [0.46439393395, 1]], [5, [7.4303029432, 1]], [5, [3.7151514716, 1]], [5, [1.8575757358, 1]], [5, [0.9287878679, 1]], [5, [0.46439393395, 1]], [6, [7.4303029432, 1]], [6, [3.7151514716, 1]], [6, [1.8575757358, 1]], [6, [0.9287878679, 1]], [6, [0.46439393395, 1]]]
num shells = 114, num cGTOs = 658
Drop 0 primitive fitting functions
make aux basis, num shells = 114, num cGTOs = 658
auxcell.rcut 12.042448909537999
kmesh for bvk-cell = [1 1 1]


******** <class 'pyscf.pbc.df.rsdf_builder._RSGDFBuilder'> ********
mesh = [15 15 21] (4725 PWs)
ke_cutoff = 20.520941924930494
omega = 0.5114052731672605
exclude_d_aux = True
exclude_dd_block = True
j2c_eig_always = False
has_long_range = True
Set _RSGDFBuilder.direct_scf_tol to 7.81e-15
rs_cell.nbas 18 nao 92
No. smooth_bas in rs_cell 4
rs_cell.nbas 114 nao 658
No. smooth_bas in rs_cell 0
sup-mol nbas = 4222 cGTO = 21888 pGTO = 48880
sup-mol-ft nbas = 4203 cGTO = 21695 pGTO = 47983
    CPU time for int3c kernel initialization      0.74 sec, wall time      0.04 sec
    CPU time for pass1: real space int3c2e    167.68 sec, wall time     13.41 sec
Set ft_ao cutoff to 4.30028e-11
Set 2c2e integrals precision 1e-12, mesh [13 13 21]
    CPU time for int2c2e      5.90 sec, wall time      0.30 sec
    CPU time for pass2: AFT int3c2e     50.59 sec, wall time      2.82 sec
    CPU time for get_j      3.11 sec, wall time      0.16 sec
    CPU time for vj and vk    222.30 sec, wall time     16.43 sec
Ewald components = 6.77773183084737, -128.779455527716, 5.42224205397643
E1 = -88.22425101224174  Ecoul = 61.053751540182006  Exc = -25.483317611396075
init E= -169.233298726348
cond(S) = [33729.90476262]
    CPU time for initialize scf    303.16 sec, wall time     20.66 sec
HOMO = 0.243219582105  LUMO = 0.438855088131
     k-point                  mo_energy
   0 ( 0.000  0.000  0.000)   [-0.30996741 -0.26927625 -0.05738161 -0.0567009  -0.05669152 -0.05171258
 -0.05170877 -0.03580184 -0.03577766 -0.03173415 -0.0317032  -0.01925486
  0.05383196  0.21318853  0.21319393  0.24186264  0.24186496  0.24321958] [ 0.43885509  0.53420872  0.64644053  0.75938813  0.7593947   0.78728995
  0.81649266  0.81651139  1.1100493   1.11009532  1.1829321   1.27898569
  1.27902352  1.28466702  1.28467136  1.32844425  1.34712744  1.42986902
  1.42988147  1.46710622  1.50599129  1.63034509  1.63036957  1.92205697
  1.92206433  1.97661937  1.97662406  1.98873627  2.05060091  2.05060336
  2.15574495  2.26782002  2.29654421  2.34020589  2.35706347  2.35707164
  2.42685187  2.42686035  2.56866514  2.57447819  2.57448992  2.61906635
  2.91864726  2.91864791  3.01645305  3.19090581  3.24544344  3.24549938
  3.29850386  3.29850678  6.0799641   6.10171996 10.37828165 10.40974353
 10.40975841 10.4912496  10.49125716 10.70079089]
nelec by numeric integration = 36.00016214916269
    CPU time for vxc      4.97 sec, wall time      0.26 sec
    CPU time for get_j      2.66 sec, wall time      0.13 sec
    CPU time for vj and vk      2.66 sec, wall time      0.13 sec
Ewald components = 6.77773183084737, -128.779455527716, 5.42224205397643
E1 = -86.96164961485294  Ecoul = 62.061658873513466  Exc = -26.64862928990543
cycle= 1 E= -168.128101674137  delta_E= 1.11  |g|= 1.99  |ddm|= 4.41
    CPU time for cycle= 1      7.80 sec, wall time      0.41 sec
HOMO = 0.660823090999  LUMO = 0.660824056516

WARN: HOMO 0.660823090999 == LUMO 0.660824056516

     k-point                  mo_energy
   0 ( 0.000  0.000  0.000)   [-0.31336636 -0.31336352 -0.31304784 -0.31304526 -0.31190813 -0.310819
 -0.30967299 -0.30964002 -0.30725783 -0.30722441 -0.05957747  0.09717313
  0.18750084  0.54879063  0.54880368  0.64482574  0.65556705  0.66082309] [ 0.66082406  0.70843679  0.72523849  0.72524719  0.77580571  0.87241759
  0.87243645  1.07489414  1.11160348  1.11164976  1.14438461  1.25949771
  1.25951145  1.32630414  1.40781846  1.46206581  1.46841502  1.46845231
  1.64802503  1.64804736  1.70821114  1.7082303   1.87225476  2.04002534
  2.04002874  2.05697157  2.08636322  2.08641243  2.13258511  2.13260669
  2.2367471   2.25415733  2.2777541   2.38184284  2.4622619   2.46226571
  2.63210357  2.6321044   2.65138576  2.76942467  2.94019211  2.94020075
  3.13152196  3.13153875  3.30409839  3.42741971  3.49854119  3.49858222
  3.50682567  3.50684169  5.80497148  5.83214753 10.18635231 10.21240974
 10.21241247 10.2969297  10.29694527 10.49392766]
nelec by numeric integration = 36.00028888780226
    CPU time for vxc      5.74 sec, wall time      0.30 sec
    CPU time for get_j      3.15 sec, wall time      0.16 sec
    CPU time for vj and vk      3.15 sec, wall time      0.16 sec
Ewald components = 6.77773183084737, -128.779455527716, 5.42224205397643
E1 = -87.83695284851527  Ecoul = 63.298735252604146  Exc = -25.34369805190332
cycle= 2 E= -166.461397290706  delta_E= 1.67  |g|= 2.78  |ddm|= 31.9
    CPU time for cycle= 2      9.09 sec, wall time      0.47 sec
HOMO = 0.412752625135  LUMO = 0.511623291833
     k-point                  mo_energy
   0 ( 0.000  0.000  0.000)   [-0.18639408 -0.15850168 -0.11943113 -0.11755937 -0.11733259 -0.11655796
 -0.11339558 -0.10678085 -0.10627628 -0.1029102  -0.10154026 -0.0409474
  0.12711689  0.36234362  0.36948707  0.4062839   0.4082741   0.41275263] [ 0.51162329  0.57160398  0.7496348   0.75132387  0.78675567  0.79082954
  0.82804777  0.83224343  1.11862987  1.12316036  1.17686382  1.28001574
  1.2827602   1.34722952  1.34872331  1.34953198  1.35011336  1.47477838
  1.51665886  1.51680478  1.60509361  1.66235663  1.66849733  1.95325694
  1.95673263  2.0116847   2.01230718  2.02066541  2.0554001   2.05652351
  2.19094921  2.27353716  2.3161294   2.3223262   2.401807    2.40431525
  2.5128281   2.51467974  2.59327117  2.66596467  2.69876578  2.7028591
  2.98596138  2.98872501  3.11288322  3.2656336   3.31971775  3.32673233
  3.35956843  3.36572264  6.01156261  6.03468202 10.32028385 10.34075328
 10.34351661 10.4223723  10.42531219 10.63785267]
nelec by numeric integration = 36.0002475156139
    CPU time for vxc      5.25 sec, wall time      0.26 sec
    CPU time for get_j      2.39 sec, wall time      0.12 sec
    CPU time for vj and vk      2.39 sec, wall time      0.12 sec
Ewald components = 6.77773183084737, -128.779455527716, 5.42224205397643
E1 = -87.23853981858197  Ecoul = 60.86585655934849  Exc = -26.012854752176132
cycle= 3 E= -168.965019654301  delta_E= -2.5  |g|= 0.296  |ddm|= 31.8
    CPU time for cycle= 3      7.81 sec, wall time      0.39 sec
HOMO = 0.426259947422  LUMO = 0.514118061557
     k-point                  mo_energy
   0 ( 0.000  0.000  0.000)   [-0.18280702 -0.17740209 -0.16231736 -0.16197995 -0.16145595 -0.16074347
 -0.16063003 -0.15463571 -0.15447068 -0.15118626 -0.15086509 -0.0516363
  0.12578942  0.37762039  0.37953113  0.41865646  0.42478196  0.42625995] [ 0.51411806  0.56383154  0.74303894  0.74339597  0.77812538  0.79413839
  0.82590897  0.82712999  1.10947541  1.11136856  1.16679687  1.27149987
  1.2732707   1.33685081  1.34557298  1.3461947   1.34721208  1.46424083
  1.51385704  1.5142696   1.60595062  1.66108959  1.66337218  1.95199428
  1.9534151   2.00286476  2.00709538  2.01005516  2.04730065  2.04778552
  2.18823251  2.26224725  2.3046257   2.32133134  2.402537    2.40344256
  2.52417302  2.52503177  2.58556214  2.66302064  2.71853145  2.7190997
  2.9905441   2.99056211  3.1190402   3.26995219  3.32909034  3.33063898
  3.36619194  3.36758085  5.96314901  5.98666349 10.28283187 10.31083599
 10.31163749 10.39201395 10.39289968 10.59749298]
nelec by numeric integration = 36.00025789790074
    CPU time for vxc      5.52 sec, wall time      0.28 sec
    CPU time for get_j      2.70 sec, wall time      0.14 sec
    CPU time for vj and vk      2.70 sec, wall time      0.14 sec
Ewald components = 6.77773183084737, -128.779455527716, 5.42224205397643
E1 = -87.67291611830737  Ecoul = 61.28746416302378  Exc = -26.018202721905375
cycle= 4 E= -168.983136320081  delta_E= -0.0181  |g|= 0.0687  |ddm|= 0.424
    CPU time for cycle= 4      8.43 sec, wall time      0.42 sec
HOMO = 0.43123028646  LUMO = 0.517589002598
     k-point                  mo_energy
   0 ( 0.000  0.000  0.000)   [-0.17403381 -0.17355898 -0.15106688 -0.1510175  -0.15069403 -0.14955583
 -0.14952152 -0.14354608 -0.14340634 -0.1399228  -0.13980064 -0.04526021
  0.12694514  0.38310576  0.38322355  0.42381025  0.43095123  0.43123029] [ 0.517589    0.56699322  0.74414762  0.74433271  0.77887503  0.79878112
  0.82863194  0.82864375  1.11215908  1.11226013  1.16776055  1.27341223
  1.27349072  1.33819446  1.34704828  1.34973884  1.34977739  1.46476214
  1.51763628  1.51783101  1.6097407   1.66379953  1.66400006  1.95475842
  1.95482312  2.00579304  2.01121208  2.01137359  2.04858787  2.04865414
  2.19007831  2.26387594  2.30632711  2.32399212  2.40540967  2.40544719
  2.52814014  2.52819589  2.58860447  2.66580159  2.72284226  2.72289402
  2.99335413  2.99339924  3.12270446  3.27333403  3.3339007   3.33404043
  3.37066653  3.37078363  5.97544785  5.9990255  10.28699546 10.31596847
 10.31613211 10.39733265 10.39751251 10.60226459]
nelec by numeric integration = 36.00026040001728
    CPU time for vxc      5.40 sec, wall time      0.28 sec
    CPU time for get_j      1.27 sec, wall time      0.06 sec
    CPU time for vj and vk      1.27 sec, wall time      0.07 sec
Ewald components = 6.77773183084737, -128.779455527716, 5.42224205397643
E1 = -87.48680622373853  Ecoul = 61.04939597666907  Exc = -25.967264325313856
cycle= 5 E= -168.984156215275  delta_E= -0.00102  |g|= 0.0137  |ddm|= 0.146
    CPU time for cycle= 5      6.87 sec, wall time      0.35 sec
HOMO = 0.430993317462  LUMO = 0.51752282818
     k-point                  mo_energy
   0 ( 0.000  0.000  0.000)   [-0.17463562 -0.17409392 -0.15266999 -0.15266608 -0.15199823 -0.15122175
 -0.15121179 -0.14498526 -0.14497146 -0.14134915 -0.14133862 -0.04566835
  0.12719593  0.38306159  0.38312457  0.42392919  0.43090753  0.43099332] [ 0.51752283  0.56666807  0.74401517  0.74408348  0.77887433  0.79908744
  0.82834894  0.82836341  1.11190958  1.11203197  1.16754069  1.27333101
  1.27336423  1.33822878  1.34712173  1.34961836  1.34971118  1.46491215
  1.51769635  1.51770103  1.60998464  1.66379801  1.66382545  1.95471085
  1.95472249  2.0053452   2.0112141   2.01137774  2.04868575  2.04871706
  2.19012115  2.26340215  2.30582846  2.32379178  2.40523392  2.40528866
  2.52792652  2.52793592  2.58825134  2.66562392  2.72272386  2.72278255
  2.99333988  2.99336071  3.12271945  3.27330167  3.33365788  3.33382222
  3.37047177  3.37056875  5.97371846  5.99729453 10.28669008 10.31532711
 10.31536677 10.39666883 10.39673096 10.6018759 ]
nelec by numeric integration = 36.00026087618051
    CPU time for vxc      5.49 sec, wall time      0.28 sec
    CPU time for get_j      1.54 sec, wall time      0.08 sec
    CPU time for vj and vk      1.54 sec, wall time      0.08 sec
Ewald components = 6.77773183084737, -128.779455527716, 5.42224205397643
E1 = -87.50975439659148  Ecoul = 61.076519365872116  Exc = -25.97148616955222
cycle= 6 E= -168.984202843163  delta_E= -4.66e-05  |g|= 0.00479  |ddm|= 0.0592
    CPU time for cycle= 6      7.29 sec, wall time      0.38 sec
HOMO = 0.430966641394  LUMO = 0.517526142326
     k-point                  mo_energy
   0 ( 0.000  0.000  0.000)   [-0.1748775  -0.17406968 -0.15298803 -0.15297542 -0.15236865 -0.15152893
 -0.15152162 -0.14534208 -0.14531768 -0.14171977 -0.14168933 -0.04575104
  0.12712542  0.3830706   0.38310472  0.42392852  0.4309372   0.43096664] [ 0.51752614  0.56674582  0.74404182  0.74404782  0.77881393  0.79906769
  0.82836408  0.82837309  1.1119089   1.11198435  1.16754267  1.27328139
  1.27329787  1.33818871  1.34701633  1.3496191   1.34969986  1.4648252
  1.51766976  1.51769154  1.61003059  1.66377719  1.66381204  1.95467839
  1.95470279  2.00546489  2.01119657  2.0112664   2.04859782  2.04860286
  2.19005822  2.26347831  2.30590899  2.32378331  2.40520479  2.40522449
  2.52788961  2.52789743  2.58833986  2.66566289  2.72273235  2.72275837
  2.99329863  2.99331286  3.12268582  3.2732615   3.33370009  3.33378443
  3.37047295  3.37051166  5.97334098  5.99691609 10.28648906 10.31522555
 10.31522828 10.39657636 10.39659054 10.60165092]
nelec by numeric integration = 36.00026070775159
    CPU time for vxc      5.55 sec, wall time      0.29 sec
    CPU time for get_j      2.81 sec, wall time      0.14 sec
    CPU time for vj and vk      2.81 sec, wall time      0.14 sec
Ewald components = 6.77773183084737, -128.779455527716, 5.42224205397643
E1 = -87.51509855014733  Ecoul = 61.08272509541677  Exc = -25.972355493126308
cycle= 7 E= -168.984210590749  delta_E= -7.75e-06  |g|= 0.000992  |ddm|= 0.0196
    CPU time for cycle= 7      8.61 sec, wall time      0.44 sec
HOMO = 0.430993338068  LUMO = 0.517558026191
     k-point                  mo_energy
   0 ( 0.000  0.000  0.000)   [-0.17479798 -0.17404631 -0.1528926  -0.15288263 -0.15226675 -0.15143401
 -0.15142955 -0.14524412 -0.14521701 -0.14162014 -0.14158698 -0.0457048
  0.12716557  0.38311861  0.38312909  0.42397925  0.43099114  0.43099334] [ 0.51755803  0.5667454   0.74404744  0.74406027  0.77882725  0.799127
  0.82836787  0.82839049  1.11194088  1.11199171  1.16754412  1.27331372
  1.27331616  1.33820926  1.34705886  1.34965581  1.34972644  1.4648418
  1.51770271  1.51773207  1.61007262  1.66379844  1.66381742  1.95469453
  1.95473488  2.00546287  2.01125226  2.01127719  2.04861956  2.04863325
  2.19009031  2.26347457  2.30590457  2.32380738  2.40523263  2.40523684
  2.52791663  2.52791844  2.58834522  2.66567755  2.72276949  2.72278208
  2.99332988  2.9933403   3.12272312  3.27330173  3.33373973  3.33379151
  3.37051294  3.37052596  5.97344848  5.99702442 10.28654203 10.31526465
 10.31527102 10.39661995 10.39662946 10.60171229]
nelec by numeric integration = 36.000260703730696
    CPU time for vxc      6.93 sec, wall time      0.36 sec
    CPU time for get_j      1.46 sec, wall time      0.07 sec
    CPU time for vj and vk      1.46 sec, wall time      0.07 sec
Ewald components = 6.77773183084737, -128.779455527716, 5.42224205397643
E1 = -87.51344878949982  Ecoul = 61.08065497106093  Exc = -25.971935404779508
cycle= 8 E= -168.98421086611  delta_E= -2.75e-07  |g|= 0.000211  |ddm|= 0.00351
    CPU time for cycle= 8      8.58 sec, wall time      0.44 sec
HOMO = 0.431001812391  LUMO = 0.517563501627
     k-point                  mo_energy
   0 ( 0.000  0.000  0.000)   [-0.17479199 -0.17404104 -0.15288411 -0.15287555 -0.15226191 -0.15142565
 -0.15142156 -0.14523751 -0.14521103 -0.14161329 -0.14158175 -0.04569854
  0.12716673  0.38312677  0.38313485  0.42398574  0.43099961  0.43100181] [ 0.5175635   0.56674981  0.74405057  0.74406077  0.77882689  0.79913381
  0.82837066  0.82839485  1.11194409  1.11199327  1.16754565  1.27331533
  1.27331755  1.3382103   1.34706002  1.34966119  1.3497308   1.46484056
  1.51770857  1.51773721  1.61007824  1.66380305  1.66381669  1.95469708
  1.95473863  2.00546836  2.01125578  2.01127977  2.04862039  2.04863252
  2.19009202  2.2634782   2.30590833  2.32381039  2.40523548  2.40523942
  2.52792218  2.5279227   2.58834942  2.66568177  2.72277552  2.72278821
  2.99333325  2.99334344  3.12272745  3.27330549  3.33374507  3.33379732
  3.37051787  3.37053063  5.97345624  5.99703229 10.28654165 10.31526941
 10.31527229 10.39662107 10.39663474 10.60171213]
nelec by numeric integration = 36.000260715630176
    CPU time for vxc      5.26 sec, wall time      0.27 sec
    CPU time for get_j      2.35 sec, wall time      0.12 sec
    CPU time for vj and vk      2.35 sec, wall time      0.12 sec
Ewald components = 6.77773183084737, -128.779455527716, 5.42224205397643
E1 = -87.51331325220065  Ecoul = 61.08046862937554  Exc = -25.97188460704806
cycle= 9 E= -168.984210872765  delta_E= -6.65e-09  |g|= 0.000166  |ddm|= 0.000713
    CPU time for cycle= 9      7.83 sec, wall time      0.40 sec
HOMO = 0.43100671694  LUMO = 0.51756600889
     k-point                  mo_energy
   0 ( 0.000  0.000  0.000)   [-0.17479795 -0.17403789 -0.15289238 -0.15288397 -0.15227069 -0.15143384
 -0.15142978 -0.14524677 -0.14521953 -0.14162262 -0.14159043 -0.04569814
  0.12716788  0.38312993  0.38313948  0.42398945  0.43100394  0.43100672] [ 0.51756601  0.5667502   0.74405019  0.7440602   0.77882606  0.79913846
  0.82837179  0.82839442  1.11194226  1.11199391  1.16754506  1.27331458
  1.27331741  1.33820978  1.34706011  1.34966242  1.34973307  1.46483999
  1.5177108   1.51773976  1.61008142  1.66380208  1.66381859  1.95469924
  1.95473859  2.00546858  2.01125534  2.01128219  2.04862038  2.04863179
  2.1900925   2.26347731  2.30590739  2.32381059  2.40523566  2.40524052
  2.5279236   2.5279253   2.58834905  2.66568285  2.72277891  2.72279213
  2.99333501  2.99334492  3.12272975  3.27330694  3.33374648  3.33380004
  3.37051887  3.37053275  5.97344695  5.99702307 10.28653649 10.31526418
 10.31526816 10.39661705 10.39662934 10.60170633]
nelec by numeric integration = 36.00026071656885
    CPU time for vxc      5.43 sec, wall time      0.28 sec
    CPU time for get_j      2.82 sec, wall time      0.14 sec
    CPU time for vj and vk      2.82 sec, wall time      0.14 sec
Ewald components = 6.77773183084737, -128.779455527716, 5.42224205397643
E1 = -87.51340924408274  Ecoul = 61.080565360589176  Exc = -25.971885301139945
Extra cycle  E= -168.984210827525  delta_E= 4.52e-08  |g|= 0.000472  |ddm|= 0.000833
    CPU time for scf_cycle    383.91 sec, wall time     24.79 sec
    CPU time for SCF    383.95 sec, wall time     24.79 sec
converged SCF energy = -168.984210827525

******** <class 'pyscf.pbc.gw.krgw_ac.KRGWAC'> ********
method = KRGWAC
GW nocc = 18, nvir = 58, nkpts = 1
frozen orbitals 0
use perturbative linearized QP eqn = False
analytic continuation method = pade
GW finite size corrections = True
nelec by numeric integration = 36.00026071656885
    CPU time for vxc      5.54 sec, wall time      0.29 sec
    CPU time for get_j      2.02 sec, wall time      0.10 sec
    CPU time for vj and vk      2.02 sec, wall time      0.10 sec
    CPU time for get_j      1.33 sec, wall time      0.07 sec
    CPU time for vj and vk      1.33 sec, wall time      0.07 sec
Rebuild CDERI for exchange integrals


******** <class 'pyscf.pbc.df.df.GDF'> ********
auxbasis = {'N': [[0, [10.4206262528, 1]], [0, [5.2103131264, 1]], [0, [2.6051565632, 1]], [0, [1.3025782816, 1]], [0, [0.6512891408, 1]], [0, [0.3256445704, 1]], [1, [10.4206262528, 1]], [1, [5.2103131264, 1]], [1, [2.6051565632, 1]], [1, [1.3025782816, 1]], [1, [0.6512891408, 1]], [1, [0.3256445704, 1]], [2, [10.4206262528, 1]], [2, [5.2103131264, 1]], [2, [2.6051565632, 1]], [2, [1.3025782816, 1]], [2, [0.6512891408, 1]], [2, [0.3256445704, 1]], [3, [2.9178162465339725, 1]], [3, [1.4589081232669863, 1]], [3, [0.7294540616334931, 1]], [4, [1.634, 1]]], 'Ga': [[0, [7.4303029432, 1]], [0, [3.7151514716, 1]], [0, [1.8575757358, 1]], [0, [0.9287878679, 1]], [0, [0.46439393395, 1]], [1, [7.4303029432, 1]], [1, [3.7151514716, 1]], [1, [1.8575757358, 1]], [1, [0.9287878679, 1]], [1, [0.46439393395, 1]], [2, [7.4303029432, 1]], [2, [3.7151514716, 1]], [2, [1.8575757358, 1]], [2, [0.9287878679, 1]], [2, [0.46439393395, 1]], [3, [7.4303029432, 1]], [3, [3.7151514716, 1]], [3, [1.8575757358, 1]], [3, [0.9287878679, 1]], [3, [0.46439393395, 1]], [4, [7.4303029432, 1]], [4, [3.7151514716, 1]], [4, [1.8575757358, 1]], [4, [0.9287878679, 1]], [4, [0.46439393395, 1]], [5, [7.4303029432, 1]], [5, [3.7151514716, 1]], [5, [1.8575757358, 1]], [5, [0.9287878679, 1]], [5, [0.46439393395, 1]], [6, [7.4303029432, 1]], [6, [3.7151514716, 1]], [6, [1.8575757358, 1]], [6, [0.9287878679, 1]], [6, [0.46439393395, 1]]]}
exp_to_discard = 0.1
_cderi = /tmp/tmpaaj4ksp8  where DF integrals are loaded (readonly).
len(kpts) = 1
Even tempered Gaussians are generated as DF auxbasis for  N Ga
  ETB auxbasis for N  [[0, [10.4206262528, 1]], [0, [5.2103131264, 1]], [0, [2.6051565632, 1]], [0, [1.3025782816, 1]], [0, [0.6512891408, 1]], [0, [0.3256445704, 1]], [1, [10.4206262528, 1]], [1, [5.2103131264, 1]], [1, [2.6051565632, 1]], [1, [1.3025782816, 1]], [1, [0.6512891408, 1]], [1, [0.3256445704, 1]], [2, [10.4206262528, 1]], [2, [5.2103131264, 1]], [2, [2.6051565632, 1]], [2, [1.3025782816, 1]], [2, [0.6512891408, 1]], [2, [0.3256445704, 1]], [3, [2.9178162465339725, 1]], [3, [1.4589081232669863, 1]], [3, [0.7294540616334931, 1]], [4, [1.634, 1]]]
  ETB auxbasis for Ga  [[0, [7.4303029432, 1]], [0, [3.7151514716, 1]], [0, [1.8575757358, 1]], [0, [0.9287878679, 1]], [0, [0.46439393395, 1]], [1, [7.4303029432, 1]], [1, [3.7151514716, 1]], [1, [1.8575757358, 1]], [1, [0.9287878679, 1]], [1, [0.46439393395, 1]], [2, [7.4303029432, 1]], [2, [3.7151514716, 1]], [2, [1.8575757358, 1]], [2, [0.9287878679, 1]], [2, [0.46439393395, 1]], [3, [7.4303029432, 1]], [3, [3.7151514716, 1]], [3, [1.8575757358, 1]], [3, [0.9287878679, 1]], [3, [0.46439393395, 1]], [4, [7.4303029432, 1]], [4, [3.7151514716, 1]], [4, [1.8575757358, 1]], [4, [0.9287878679, 1]], [4, [0.46439393395, 1]], [5, [7.4303029432, 1]], [5, [3.7151514716, 1]], [5, [1.8575757358, 1]], [5, [0.9287878679, 1]], [5, [0.46439393395, 1]], [6, [7.4303029432, 1]], [6, [3.7151514716, 1]], [6, [1.8575757358, 1]], [6, [0.9287878679, 1]], [6, [0.46439393395, 1]]]
num shells = 114, num cGTOs = 658
Drop 0 primitive fitting functions
make aux basis, num shells = 114, num cGTOs = 658
auxcell.rcut 12.042448909537999

WARN: File /tmp/tmpaaj4ksp8 (specified by ._cderi) is overwritten by GDF initialization.

kmesh for bvk-cell = [1 1 1]


******** <class 'pyscf.pbc.df.rsdf_builder._RSGDFBuilder'> ********
mesh = [15 15 21] (4725 PWs)
ke_cutoff = 20.520941924930494
omega = 0.5114052731672605
exclude_d_aux = True
exclude_dd_block = True
j2c_eig_always = False
has_long_range = True
Set _RSGDFBuilder.direct_scf_tol to 7.81e-15
rs_cell.nbas 18 nao 92
No. smooth_bas in rs_cell 4
rs_cell.nbas 114 nao 658
No. smooth_bas in rs_cell 0
sup-mol nbas = 4222 cGTO = 21888 pGTO = 48880
sup-mol-ft nbas = 4203 cGTO = 21695 pGTO = 47983
    CPU time for int3c kernel initialization      0.59 sec, wall time      0.03 sec
    CPU time for pass1: real space int3c2e    165.66 sec, wall time     14.00 sec
Set ft_ao cutoff to 4.30028e-11
Set 2c2e integrals precision 1e-12, mesh [13 13 21]
    CPU time for int2c2e      6.12 sec, wall time      0.31 sec
    CPU time for pass2: AFT int3c2e     54.62 sec, wall time      3.00 sec
Ewald components = 0.00051775335925431, -0.251419253935776, 0.0646100141269025
    CPU time for get_k_kpts      7.50 sec, wall time      0.40 sec
    CPU time for get_j      2.41 sec, wall time      0.12 sec
    CPU time for vj and vk      9.91 sec, wall time      0.53 sec
    CPU time for get_j      1.25 sec, wall time      0.06 sec
    CPU time for vj and vk      1.26 sec, wall time      0.06 sec
atom Ga rad-grids = 120, ang-grids = [ 50  50  50  50  50  50  50  50  50  50  50  50  50  50  50  50  50  50
  50  50  50  50  50  50  50  50  50  50  50  50  50  50  50  50  50  50
  50  50  50  50  50  50  86  86  86  86  86  86  86  86  86  86  86  86
  86  86  86  86  86  86 590 590 590 590 590 590 590 590 590 590 590 590
 770 770 770 770 770 770 770 770 770 770 770 770 770 770 770 770 770 770
 770 770 770 770 770 770 590 590 590 590 590 590 590 590 590 590 590 590
 590 590 590 590 590 590 590 590 590 590 590 590]
atom N rad-grids = 105, ang-grids = [ 50  50  50  50  50  50  50  50  50  50  50  50  50  50  50  50  50  50
  50  50  50  50  50  50  50  50  50  50  50  50  50  50  50  50  50  86
  86  86  86  86  86  86  86  86  86  86 590 590 590 590 590 590 590 590
 770 770 770 770 770 770 770 770 770 770 770 770 770 770 770 770 770 770
 770 770 770 770 770 590 590 590 590 590 590 590 590 590 590 590 590 590
 590 590 590 590 590 590 590 590 590 590 590 590 590 590 590]
Read Lpq (kL: 1 / 1, ki: 0, kj: 0)
  GW mo_energy @ k0 =
[-8.95752818e-02 -2.18196410e-01 -2.26293802e-02 -2.26271874e-02
 -1.98171804e-02 -1.99556186e-02 -1.99533973e-02 -6.51840473e-03
 -6.51263402e-03 -3.53514231e-04 -3.48494074e-04 -3.88718570e-02
  1.22991091e-01  3.75626808e-01  3.75628807e-01  4.38659248e-01
  4.30658320e-01  4.30659524e-01  5.29648835e-01  5.82506318e-01
  7.47352207e-01  7.47354873e-01  7.76321564e-01  8.36398531e-01
  8.42843392e-01  8.42848009e-01  1.16004820e+00  1.16005678e+00
  1.19037306e+00  1.31061618e+00  1.31061647e+00  1.37526931e+00
  1.37663322e+00  1.40706745e+00  1.40708097e+00  1.48559433e+00
  1.59208020e+00  1.59208784e+00  1.65117560e+00  1.70878234e+00
  1.70878508e+00  2.00273798e+00  2.00274899e+00  2.06626508e+00
  2.07414064e+00  2.07414383e+00  2.11568713e+00  2.11570420e+00
  2.26756539e+00  2.32976015e+00  2.37139391e+00  2.40036589e+00
  2.47916775e+00  2.47916438e+00  2.61483232e+00  2.61483492e+00
  2.66253471e+00  2.74206425e+00  2.80629820e+00  2.80629597e+00
  3.07237979e+00  3.07238609e+00  3.22778549e+00  3.40013384e+00
  3.44580123e+00  3.44581777e+00  3.47514655e+00  3.47516074e+00
  6.42867127e+00  6.40886684e+00  1.07486189e+01  1.07553568e+01
  1.07553522e+01  1.09340539e+01  1.09340438e+01  1.11100185e+01]

WARN: GW QP energies may not be sorted from min to max

    CPU time for GW    970.12 sec, wall time     56.61 sec
DFT HOMO energy: 14.083488667906906
DFT LUMO energy: 11.728123774653671
DFT Band gap at Gamma point [eV]: 2.355364893253234
GW HOMO energy: 14.412274439523438
GW LUMO energy: 11.936356794340512
GW Band gap at Gamma point [eV]: 2.475917645182928
