Command:  /central/groups/wag/programs/Schrodinger_2022_3/jaguar run -TMPDIR /central/scratch/musgrave -WAIT -PARALLEL 1 ts.in
Release:  2022-3
Build:    /central/groups/wag/programs/Schrodinger_2022_3
Host:     hpc-25-04.cm.cluster
JobId:    hpc-25-04-0-644178bf
JobDir:   /central/scratch/musgrave/pkozlows/ts
Date:     Thu Apr 20 10:39:15 2023

Contents of /central/scratch/musgrave/pkozlows/ts:
/central/scratch/musgrave/pkozlows/ts/.write_dir.json
/central/scratch/musgrave/pkozlows/ts/ts.log
/central/scratch/musgrave/pkozlows/ts/ts.in
/central/scratch/musgrave/pkozlows/ts/hpc-25-04-0-644178bf.mpinodes
/central/scratch/musgrave/pkozlows/ts/hpc-25-04-0-644178bf.recover
/central/scratch/musgrave/pkozlows/ts/hpc-25-04-0-644178bf
/central/scratch/musgrave/pkozlows/ts/ts.recover

Executing subprocess:
/central/groups/wag/programs/Schrodinger_2022_3/jaguar-v11.7/bin/Linux-x86_64/jexec ts.in -out /central/scratch/musgrave/pkozlows/ts -cwd

datadir=/central/groups/wag/programs/Schrodinger_2022_3/jaguar-v11.7/data
Job ts started on hpc-25-04.cm.cluster at Thu Apr 20 10:39:15 2023
jobid: hpc-25-04-0-644178bf 
Jaguar version 11.7, release 121
Molecular Point Group: C1      
Point Group used: C1 (symmetry turned off)
pre (input checking) done.
onee (1-electron integrals) done.
hfig (HF initial guess) done.
probe (project orbitals) done.
grid (grid generation) done.
scf type: DFT=PBE(X+LC)+PW91 (PBE-D3)
  
       i  u  d  i  g
       t  p  i  c  r                                 RMS    maximum
       e  d  i  u  i                       energy  density   DIIS  
       r  t  s  t  d       total energy    change  change    error 
  
etot    1  N  N  0  N    -268.81568911779           1.4E-02  1.2E-01
etot    2  Y  Y  0  N    -267.73203841749 -1.1E+00  1.5E-02  1.6E-01
etot    3  Y  Y  0  N    -268.00369462622  2.7E-01  1.3E-02  1.3E-01
etot    4  N  Y  0  N    -269.05476891243  1.1E+00  9.6E-03  1.2E-01
etot    5  Y  Y  0  N    -269.74245818377  6.9E-01  7.5E-03  5.1E-02
etot    6  N  Y  0  N    -269.72292091345 -2.0E-02  8.4E-03  4.3E-02
etot    7  N  Y  0  N    -269.73272497584  9.8E-03  7.6E-03  3.3E-02
etot    8  Y  Y  0  N    -269.83828423660  1.1E-01  1.7E-03  2.1E-02
etot    9  N  Y  0  N    -269.86561286024  2.7E-02  6.4E-04  1.0E-02
etot   10  Y  Y  0  N    -269.87215279047  6.5E-03  9.8E-03  7.0E-03
etot   11  N  Y  0  N    -269.55872003661 -3.1E-01  9.4E-03  5.1E-02
etot   12  N  Y  0  N    -269.87360225691  3.1E-01  8.7E-03  4.3E-03
etot   13  Y  Y  0  N    -269.69248630266 -1.8E-01  2.6E-03  4.9E-02
etot   14  N  Y  0  N    -269.80062334442  1.1E-01  6.4E-03  2.8E-02
etot   15  Y  Y  0  N    -269.87520889074  7.5E-02  3.2E-04  1.9E-03
etot   16  N  Y  0  N    -269.87537622085  1.7E-04  1.2E-03  1.2E-03
etot   17  Y  Y  0  N    -269.87504513011 -3.3E-04  1.0E-02  2.2E-03
etot   18  N  Y  0  N    -269.53034136167 -3.4E-01  4.1E-02  5.3E-02
etot   19  N  Y  0  N    -262.60562208022 -6.9E+00  3.8E-02  2.9E-01
etot   20  N  Y  0  N    -268.80309307971  6.2E+00  6.1E-03  1.3E-01
etot   21  Y  Y  0  N    -269.66124191214  8.6E-01  6.3E-03  6.0E-02
etot   22  N  Y  0  N    -269.73987382718  7.9E-02  5.2E-03  4.0E-02
etot   23  Y  Y  0  N    -269.83928037623  9.9E-02  8.3E-03  1.9E-02
etot   24  N  Y  0  N    -269.75316359772 -8.6E-02  7.4E-03  4.0E-02
etot   25  N  Y  0  N    -269.87247552808  1.2E-01  5.5E-03  4.9E-03
etot   26  Y  Y  0  N    -269.83933216229 -3.3E-02  5.6E-03  1.7E-02
etot   27  N  Y  0  N    -269.87388697062  3.5E-02  1.4E-03  4.8E-03
etot   28  Y  Y  0  N    -269.87480872641  9.2E-04  5.2E-03  2.6E-03
etot   29  N  Y  0  N    -269.84276503567 -3.2E-02  5.2E-03  1.6E-02
etot   30  N  Y  0  N    -269.87521833416  3.2E-02  6.1E-03  1.7E-03
etot   31  Y  Y  0  N    -269.81886307254 -5.6E-02  2.3E-03  2.3E-02
etot   32  N  Y  0  N    -269.74104962061 -7.8E-02  1.3E-02  4.1E-02
etot   33  N  Y  0  N    -267.65420071352 -2.1E+00  1.1E-02  1.4E-01
etot   34  N  Y  0  N    -269.79499448182  2.1E+00  3.7E-03  3.3E-02
etot   35  Y  Y  0  N    -269.81190256993  1.7E-02  9.1E-03  2.8E-02
etot   36  N  Y  0  N    -269.65263857283 -1.6E-01  8.2E-03  5.1E-02
etot   37  N  Y  0  N    -269.86817118408  2.2E-01  3.8E-03  9.6E-03
etot   38  Y  Y  0  N    -269.85845268993 -9.7E-03  4.4E-03  1.2E-02
etot   39  N  Y  0  N    -269.87174095186  1.3E-02  5.8E-04  5.2E-03
etot   40  Y  Y  0  N    -269.87434667328  2.6E-03  3.1E-04  3.6E-03
etot   41  Y  Y  0  N    -269.87493645280  5.9E-04  4.9E-04  2.7E-03
etot   42  N  Y  0  N    -269.87553003530  5.9E-04  1.0E-02  7.9E-04
etot   43  Y  Y  0  N    -269.49902867597 -3.8E-01  9.4E-06  5.6E-02
etot   44  N  Y  0  N    -269.49902647669 -2.2E-06  4.4E-04  5.6E-02
etot   45  Y  Y  0  N    -269.49161050918 -7.4E-03  5.4E-05  5.7E-02
etot   46  N  Y  0  N    -269.48935457041 -2.3E-03  4.3E-04  5.7E-02
etot   47  Y  Y  0  N    -269.50143186098  1.2E-02  8.2E-04  5.6E-02
 No-fail mode: restarting with smaller basis set
etot    1  N  N  0  N    -268.81568911779           1.4E-02  1.2E-01
etot    2  Y  Y  0  N    -267.76290584226 -1.1E+00  1.4E-02  1.6E-01
etot    3  Y  Y  0  N    -268.01612854491  2.5E-01  1.2E-02  1.3E-01
etot    4  N  Y  0  N    -269.04074356237  1.0E+00  8.8E-03  1.2E-01
etot    5  Y  Y  0  N    -269.74072436837  7.0E-01  6.7E-03  5.1E-02
etot    6  N  Y  0  N    -269.72188687661 -1.9E-02  8.0E-03  4.4E-02
etot    7  N  Y  0  N    -269.71870853366 -3.2E-03  7.1E-03  3.4E-02
etot    8  Y  Y  0  N    -269.83327590090  1.1E-01  1.5E-03  2.0E-02
etot    9  N  Y  0  N    -269.85783345882  2.5E-02  6.7E-04  9.5E-03
etot   10  Y  Y  0  N    -269.86279183279  5.0E-03  9.6E-03  7.2E-03
etot   11  N  Y  0  N    -269.56648972655 -3.0E-01  8.2E-03  5.0E-02
etot   12  N  Y  0  N    -269.85848160559  2.9E-01  7.6E-03  8.1E-03
etot   13  Y  Y  0  N    -269.81848490244 -4.0E-02  4.7E-03  2.0E-02
etot   14  N  Y  0  N    -269.86505041093  4.7E-02  9.6E-04  3.2E-03
etot   15  Y  Y  0  N    -269.86618310687  1.1E-03  3.9E-03  1.3E-03
etot   16  N  Y  0  N    -269.84914107179 -1.7E-02  6.5E-03  1.0E-02
etot   17  N  Y  0  N    -269.85615757733  7.0E-03  1.1E-03  9.1E-03
etot   18  Y  Y  0  N    -269.84463212082 -1.2E-02  4.0E-03  1.3E-02
etot   19  N  Y  0  N    -269.74300723188 -1.0E-01  5.8E-03  3.4E-02
etot   20  N  Y  0  N    -269.86187784259  1.2E-01  3.3E-04  6.2E-03
etot   21  Y  Y  0  N    -269.86321167632  1.3E-03  2.4E-03  5.2E-03
etot   22  N  Y  0  N    -269.84541793160 -1.8E-02  3.5E-05  1.3E-02
etot   23  N  Y  0  N    -269.84497960320 -4.4E-04  3.2E-03  1.3E-02
etot   24  Y  Y  0  N    -269.86525586173  2.0E-02  3.6E-04  2.8E-03
etot   25  N  Y  0  N    -269.86588817285  6.3E-04  3.3E-05  1.7E-03
etot   26  N  Y  0  N    -269.86584569488 -4.2E-05  8.8E-03  1.7E-03
etot   27  Y  Y  0  N    -269.65998857686 -2.1E-01  1.3E-02  5.1E-02
etot   28  N  Y  0  N    -267.11614906093 -2.5E+00  1.1E-02  1.4E-01
etot   29  N  Y  0  N    -269.74189062604  2.6E+00  6.6E-03  3.3E-02
etot   30  Y  Y  0  N    -269.74983698752  7.9E-03  7.6E-03  3.7E-02
etot   31  N  Y  0  N    -269.76156962154  1.2E-02  3.4E-03  3.2E-02
etot   32  Y  Y  0  N    -269.85974323389  9.8E-02  7.0E-03  8.7E-03
etot   33  N  Y  0  N    -269.77102083153 -8.9E-02  7.0E-03  3.0E-02
etot   34  N  Y  0  N    -269.86297812936  9.2E-02  3.4E-04  6.2E-03
etot   35  Y  Y  0  N    -269.86489979720  1.9E-03  1.0E-03  3.9E-03
etot   36  N  Y  0  N    -269.86472897162 -1.7E-04  3.4E-03  3.6E-03
etot   37  Y  Y  0  N    -269.86119616381 -3.5E-03  9.8E-03  6.6E-03
etot   38  N  Y  0  N    -269.61079668447 -2.5E-01  1.5E-02  5.3E-02
etot   39  N  Y  0  N    -266.72388044713 -2.9E+00  1.2E-02  1.5E-01
etot   40  N  Y  0  N    -269.68950930156  3.0E+00  7.9E-03  4.8E-02
etot   41  Y  Y  0  N    -269.69960095307  1.0E-02  8.2E-03  4.4E-02
etot   42  N  Y  0  N    -269.75507539794  5.5E-02  3.1E-03  3.2E-02
etot   43  Y  Y  0  N    -269.85486582206  1.0E-01  9.3E-03  1.2E-02
etot   44  N  Y  0  N    -269.60153712636 -2.5E-01  7.6E-03  5.0E-02
etot   45  N  Y  0  N    -269.85562051499  2.5E-01  7.2E-03  9.2E-03
etot   46  Y  Y  0  N    -269.83558774118 -2.0E-02  4.4E-03  1.4E-02
etot   47  N  Y  0  N    -269.86483783048  2.9E-02  1.4E-03  3.6E-03
 No-fail mode: restarting with vshift=1.0
etot    1  N  N  0  N    -268.81568911779           7.5E-03  1.2E-01
etot    2  Y  Y  0  N    -269.57104119999  7.6E-01  3.1E-03  4.2E-02
etot    3  Y  Y  0  N    -269.69014517771  1.2E-01  1.8E-03  4.0E-02
etot    4  N  Y  0  N    -269.73619936216  4.6E-02  9.8E-04  1.4E-02
etot    5  Y  Y  0  N    -269.74936170712  1.3E-02  7.6E-04  8.9E-03
etot    6  N  Y  0  N    -269.75647115926  7.1E-03  7.6E-04  1.1E-02
etot    7  Y  Y  0  N    -269.76391590795  7.4E-03  9.2E-04  1.2E-02
etot    8  N  Y  0  N    -269.77227518871  8.4E-03  1.1E-03  1.2E-02
etot    9  Y  Y  0  N    -269.78021574046  7.9E-03  1.0E-03  1.4E-02
etot   10  N  Y  0  N    -269.79100146672  1.1E-02  8.2E-04  1.3E-02
etot   11  Y  Y  0  N    -269.80131913975  1.0E-02  7.7E-04  1.2E-02
etot   12  N  Y  0  N    -269.80873218894  7.4E-03  6.1E-04  1.0E-02
etot   13  Y  Y  0  N    -269.81240608018  3.7E-03  4.9E-04  1.1E-02
etot   14  Y  Y  0  N    -269.81511500004  2.7E-03  4.1E-04  1.1E-02
etot   15  N  Y  0  N    -269.81475196483 -3.6E-04  3.3E-04  1.1E-02
etot   16  Y  Y  0  N    -269.81571306835  9.6E-04  3.0E-04  1.1E-02
etot   17  Y  Y  0  N    -269.81777422883  2.1E-03  2.7E-04  1.1E-02
etot   18  Y  Y  0  N    -269.81857993119  8.1E-04  2.6E-04  1.1E-02
etot   19  Y  Y  0  N    -269.82017954474  1.6E-03  2.8E-04  1.1E-02
etot   20  N  Y  0  N    -269.82341816784  3.2E-03  2.4E-04  9.6E-03
etot   21  Y  Y  0  N    -269.82253832195 -8.8E-04  1.0E-03  1.1E-02
etot   22  N  Y  0  N    -269.82908307438  6.5E-03  9.5E-04  9.8E-03
etot   23  Y  Y  0  N    -269.81044386687 -1.9E-02  1.7E-03  2.4E-02
etot   24  N  Y  0  N    -269.69767832884 -1.1E-01  3.9E-03  5.4E-02
etot   25  N  Y  0  N    -269.75500389595  5.7E-02  1.0E-03  3.9E-02
etot   26  Y  Y  0  N    -269.81877215977  6.4E-02  4.8E-04  2.0E-02
etot   27  N  Y  0  N    -269.83522618164  1.6E-02  3.6E-04  9.8E-03
etot   28  Y  Y  0  N    -269.84047055944  5.2E-03  2.7E-04  5.2E-03
etot   29  N  Y  0  N    -269.84219588821  1.7E-03  2.3E-04  4.2E-03
etot   30  Y  Y  0  N    -269.84314281563  9.5E-04  2.1E-04  3.7E-03
etot   31  Y  Y  0  N    -269.84383388676  6.9E-04  1.9E-04  3.4E-03
etot   32  Y  Y  0  N    -269.84442113074  5.9E-04  1.7E-04  3.3E-03
etot   33  Y  Y  0  N    -269.84469442311  2.7E-04  1.5E-04  3.0E-03
etot   34  N  Y  0  N    -269.84505324020  3.6E-04  1.4E-04  2.9E-03
etot   35  Y  Y  0  N    -269.84523366230  1.8E-04  1.3E-04  3.4E-03
etot   36  Y  Y  0  N    -269.84565032696  4.2E-04  1.2E-04  3.1E-03
etot   37  Y  Y  0  N    -269.84575093536  1.0E-04  3.1E-04  3.7E-03
etot   38  N  Y  0  N    -269.84649990074  7.5E-04  1.8E-04  2.8E-03
etot   39  Y  Y  0  N    -269.84699491875  5.0E-04  2.8E-04  1.8E-03
etot   40  Y  Y  0  N    -269.84655225250 -4.4E-04  3.6E-04  4.7E-03
etot   41  N  Y  0  N    -269.84220391197 -4.3E-03  7.3E-04  1.2E-02
etot   42  Y  Y  0  N    -269.84494051463  2.7E-03  2.2E-04  7.8E-03
etot   43  Y  Y  0  N    -269.84758137132  2.6E-03  1.3E-04  3.9E-03
etot   44  N  Y  0  N    -269.84823511716  6.5E-04  1.1E-04  1.7E-03
etot   45  Y  Y  0  N    -269.84848800386  2.5E-04  9.6E-05  1.6E-03
etot   46  Y  Y  0  N    -269.84864001316  1.5E-04  9.2E-05  1.4E-03
etot   47  Y  Y  0  N    -269.84877796197  1.4E-04  8.4E-05  1.4E-03
 
 No-fail mode: increasing maximum number of SCF iterations by 99
 
etot   48  Y  Y  0  N    -269.84884725041  6.9E-05  7.5E-05  1.2E-03
etot   49  N  Y  0  N    -269.84892944418  8.2E-05  7.1E-05  1.2E-03
etot   50  Y  Y  0  N    -269.84893406152  4.6E-06  6.3E-05  1.7E-03
etot   51  Y  Y  0  N    -269.84897846981  4.4E-05  5.8E-05  1.9E-03
etot   52  Y  Y  0  N    -269.84902270050  4.4E-05  5.6E-05  2.1E-03
etot   53  Y  Y  0  N    -269.84909965213  7.7E-05  5.5E-05  2.0E-03
etot   54  N  Y  0  N    -269.84918706254  8.7E-05  5.3E-05  1.9E-03
etot   55  Y  Y  0  N    -269.84921594047  2.9E-05  5.8E-05  2.1E-03
etot   56  Y  Y  0  N    -269.84935243967  1.4E-04  6.0E-05  1.7E-03
etot   57  Y  Y  0  N    -269.84947881856  1.3E-04  5.8E-05  1.3E-03
etot   58  Y  Y  0  N    -269.84955767043  7.9E-05  5.5E-05  1.2E-03
etot   59  N  Y  0  N    -269.84959062924  3.3E-05  5.2E-05  1.4E-03
etot   60  Y  Y  0  N    -269.84959128132  6.5E-07  5.0E-05  1.7E-03
etot   61  Y  Y  0  N    -269.84965008576  5.9E-05  5.2E-05  1.7E-03
etot   62  Y  Y  0  N    -269.84974078790  9.1E-05  5.0E-05  1.6E-03
etot   63  N  Y  0  N    -269.84976600932  2.5E-05  4.8E-05  1.7E-03
etot   64  N  Y  0  N    -269.84980577076  4.0E-05  6.2E-05  1.8E-03
etot   65  Y  Y  0  N    -269.84996655235  1.6E-04  1.2E-04  1.2E-03
etot   66  Y  Y  0  N    -269.85005564716  8.9E-05  8.5E-05  9.3E-04
etot   67  Y  Y  0  N    -269.85017230934  1.2E-04  6.2E-05  8.9E-04
etot   68  Y  Y  0  N    -269.85024660040  7.4E-05  6.1E-05  8.8E-04
etot   69  N  Y  0  N    -269.85028702131  4.0E-05  5.7E-05  9.3E-04
etot   70  Y  Y  0  N    -269.85032457076  3.8E-05  5.9E-05  9.9E-04
etot   71  Y  Y  0  N    -269.85040725526  8.3E-05  6.9E-05  9.6E-04
etot   72  Y  Y  0  N    -269.85051777429  1.1E-04  6.7E-05  9.2E-04
etot   73  Y  Y  0  N    -269.85059978759  8.2E-05  7.3E-05  9.2E-04
etot   74  N  Y  0  N    -269.85068373644  8.4E-05  7.4E-05  9.1E-04
etot   75  Y  Y  0  N    -269.85076442146  8.1E-05  7.8E-05  9.3E-04
etot   76  Y  Y  0  N    -269.85084096671  7.7E-05  8.6E-05  9.4E-04
etot   77  Y  Y  0  N    -269.85089073492  5.0E-05  9.4E-05  1.0E-03
etot   78  Y  Y  0  N    -269.85089439746  3.7E-06  1.6E-04  1.6E-03
etot   79  N  Y  0  N    -269.85109927523  2.0E-04  8.4E-05  1.2E-03
etot   80  Y  Y  0  N    -269.85126599008  1.7E-04  8.0E-05  1.2E-03
etot   81  Y  Y  0  N    -269.85138620555  1.2E-04  8.2E-05  1.2E-03
etot   82  Y  Y  0  N    -269.85150294362  1.2E-04  9.2E-05  1.2E-03
etot   83  Y  Y  0  N    -269.85160994241  1.1E-04  9.4E-05  1.2E-03
etot   84  N  Y  0  N    -269.85171670652  1.1E-04  9.8E-05  1.2E-03
etot   85  Y  Y  0  N    -269.85182807599  1.1E-04  1.1E-04  1.2E-03
etot   86  Y  Y  0  N    -269.85190086717  7.3E-05  1.1E-04  1.5E-03
etot   87  Y  Y  0  N    -269.85198118442  8.0E-05  2.0E-04  1.9E-03
etot   88  Y  Y  0  N    -269.85229185792  3.1E-04  1.1E-04  1.6E-03
etot   89  N  Y  0  N    -269.85258685018  2.9E-04  1.1E-04  1.6E-03
etot   90  Y  Y  0  N    -269.85281037916  2.2E-04  1.1E-04  1.6E-03
etot   91  Y  Y  0  N    -269.85302820569  2.2E-04  1.2E-04  1.7E-03
etot   92  Y  Y  0  N    -269.85324881977  2.2E-04  1.2E-04  1.7E-03
etot   93  Y  Y  0  N    -269.85349613482  2.5E-04  1.2E-04  1.8E-03
etot   94  N  Y  0  N    -269.85376485513  2.7E-04  1.3E-04  1.8E-03
etot   95  Y  Y  0  N    -269.85404713238  2.8E-04  1.3E-04  1.9E-03
etot   96  Y  Y  0  N    -269.85434370386  3.0E-04  1.4E-04  1.9E-03
etot   97  Y  Y  0  N    -269.85466461776  3.2E-04  1.4E-04  2.0E-03
etot   98  Y  Y  0  N    -269.85501576002  3.5E-04  1.4E-04  2.1E-03
etot   99  N  Y  0  N    -269.85538661023  3.7E-04  1.5E-04  2.2E-03
etot  100  Y  Y  0  N    -269.85577196656  3.9E-04  1.6E-04  2.2E-03
etot  101  Y  Y  0  N    -269.85614794747  3.8E-04  1.6E-04  2.4E-03
etot  102  Y  Y  0  N    -269.85661421002  4.7E-04  1.6E-04  2.4E-03
etot  103  Y  Y  0  N    -269.85706828611  4.5E-04  1.6E-04  2.4E-03
etot  104  N  Y  0  N    -269.85753230166  4.6E-04  1.6E-04  2.4E-03
etot  105  Y  Y  0  N    -269.85800957401  4.8E-04  1.7E-04  2.4E-03
etot  106  Y  Y  0  N    -269.85849752097  4.9E-04  1.6E-04  2.5E-03
etot  107  Y  Y  0  N    -269.85898900837  4.9E-04  1.6E-04  2.4E-03
etot  108  Y  Y  0  N    -269.85947651906  4.9E-04  1.6E-04  2.4E-03
etot  109  N  Y  0  N    -269.85995559625  4.8E-04  1.6E-04  2.4E-03
etot  110  Y  Y  0  N    -269.86041838400  4.6E-04  1.5E-04  2.4E-03
etot  111  Y  Y  0  N    -269.86082101492  4.0E-04  1.4E-04  2.3E-03
etot  112  Y  Y  0  N    -269.86118492182  3.6E-04  1.4E-04  2.3E-03
etot  113  Y  Y  0  N    -269.86157684717  3.9E-04  1.8E-04  2.3E-03
etot  114  N  Y  0  N    -269.86204444781  4.7E-04  1.7E-04  2.3E-03
etot  115  Y  Y  0  N    -269.86237092661  3.3E-04  2.5E-04  2.2E-03
etot  116  Y  Y  0  N    -269.86193380203 -4.4E-04  1.5E-04  3.5E-03
etot  117  Y  Y  0  N    -269.86047875662 -1.5E-03  2.3E-04  5.5E-03
etot  118  Y  Y  0  N    -269.86288208849  2.4E-03  1.8E-04  2.0E-03
etot  119  N  Y  0  N    -269.86134645257 -1.5E-03  6.7E-05  4.8E-03
etot  120  Y  Y  0  N    -269.86090987101 -4.4E-04  5.3E-05  5.3E-03
etot  121  Y  Y  0  N    -269.86111304022  2.0E-04  2.1E-04  5.0E-03
etot  122  Y  Y  0  N    -269.86334686296  2.2E-03  1.5E-04  2.0E-03
etot  123  Y  Y  0  N    -269.86390288419  5.6E-04  1.3E-04  2.0E-03
etot  124  N  Y  0  N    -269.86364812073 -2.5E-04  7.5E-05  2.3E-03
etot  125  Y  Y  0  N    -269.86338177989 -2.7E-04  1.1E-04  3.0E-03
etot  126  Y  Y  0  N    -269.86406012313  6.8E-04  7.0E-05  1.6E-03
etot  127  Y  Y  0  N    -269.86396534390 -9.5E-05  6.1E-05  2.1E-03
etot  128  Y  Y  0  N    -269.86409982740  1.3E-04  6.6E-05  2.1E-03
etot  129  N  Y  0  N    -269.86432113049  2.2E-04  5.7E-05  1.8E-03
etot  130  Y  Y  0  N    -269.86430750380 -1.4E-05  5.0E-05  2.2E-03
etot  131  Y  Y  0  N    -269.86424217371 -6.5E-05  4.6E-05  2.5E-03
etot  132  N  Y  0  N    -269.86406542049 -1.8E-04  6.6E-05  3.0E-03
etot  133  Y  Y  0  N    -269.86450611602  4.4E-04  6.9E-05  2.2E-03
etot  134  Y  Y  0  N    -269.86483717893  3.3E-04  5.7E-05  1.6E-03
etot  135  Y  Y  0  N    -269.86462719971 -2.1E-04  5.9E-05  2.4E-03
etot  136  Y  Y  0  N    -269.86489917828  2.7E-04  4.6E-05  1.6E-03
etot  137  N  Y  0  N    -269.86479206769 -1.1E-04  4.2E-05  2.0E-03
etot  138  N  Y  0  N    -269.86489155533  9.9E-05  5.2E-05  1.8E-03
etot  139  Y  Y  0  N    -269.86511110975  2.2E-04  6.3E-05  1.4E-03
etot  140  Y  Y  0  N    -269.86533186650  2.2E-04  5.7E-05  1.1E-03
etot  141  Y  Y  0  N    -269.86544942038  1.2E-04  5.6E-05  9.1E-04
etot  142  Y  Y  0  N    -269.86554522811  9.6E-05  4.8E-05  9.0E-04
etot  143  N  Y  0  N    -269.86558977721  4.5E-05  4.4E-05  8.5E-04
etot  144  N  Y  0  N    -269.86557345446 -1.6E-05  3.7E-05  1.1E-03
etot  145  N  Y  0  N    -269.86554891394 -2.5E-05  3.3E-05  1.3E-03
etot  146  N  Y  0  N    -269.86556513090  1.6E-05  5.0E-05  1.4E-03
 
 No-fail mode: increasing maximum number of SCF iterations by 99
 
etot  147  Y  Y  0  N    -269.86571973164  1.5E-04  4.2E-05  8.5E-04
etot  148  N  Y  0  N    -269.86578202977  6.2E-05  4.0E-05  7.5E-04
etot  149  N  Y  0  N    -269.86573855583 -4.3E-05  3.1E-05  9.8E-04
etot  150  N  Y  0  N    -269.86570117331 -3.7E-05  2.5E-05  1.2E-03
etot  151  N  Y  0  N    -269.86570309652  1.9E-06  2.3E-05  1.2E-03
etot  152  N  Y  0  N    -269.86572264740  2.0E-05  4.6E-05  1.2E-03
etot  153  N  Y  0  N    -269.86586280897  1.4E-04  4.3E-05  8.3E-04
etot  154  N  Y  0  N    -269.86593672666  7.4E-05  4.3E-05  6.2E-04
etot  155  N  Y  0  N    -269.86598676153  5.0E-05  4.0E-05  4.8E-04
etot  156  N  Y  0  N    -269.86602237323  3.6E-05  3.5E-05  4.8E-04
etot  157  N  Y  0  N    -269.86603252434  1.0E-05  3.0E-05  4.6E-04
etot  158  N  Y  0  N    -269.86602173527 -1.1E-05  2.4E-05  6.9E-04
etot  159  N  Y  0  N    -269.86601787280 -3.9E-06  2.2E-05  8.0E-04
etot  160  N  Y  0  N    -269.86603282700  1.5E-05  2.7E-05  7.4E-04
etot  161  N  Y  0  N    -269.86607304908  4.0E-05  2.7E-05  5.0E-04
etot  162  N  Y  0  N    -269.86610041829  2.7E-05  2.5E-05  4.3E-04
etot  163  N  Y  0  N    -269.86608542500 -1.5E-05  2.2E-05  5.8E-04
etot  164  N  Y  0  N    -269.86610638289  2.1E-05  2.1E-05  5.2E-04
etot  165  N  Y  0  N    -269.86612509567  1.9E-05  3.7E-05  4.6E-04
etot  166  N  Y  0  N    -269.86616419563  3.9E-05  2.4E-05  3.7E-04
etot  167  N  Y  0  N    -269.86617423988  1.0E-05  2.2E-05  3.4E-04
etot  168  N  Y  0  N    -269.86617817426  3.9E-06  2.0E-05  3.1E-04
etot  169  N  Y  0  N    -269.86617398437 -4.2E-06  1.8E-05  4.2E-04
etot  170  N  Y  0  N    -269.86616464876 -9.3E-06  1.6E-05  5.9E-04
etot  171  N  Y  0  N    -269.86617101397  6.4E-06  2.4E-05  5.6E-04
etot  172  N  Y  0  N    -269.86620315913  3.2E-05  2.0E-05  3.3E-04
etot  173  N  Y  0  N    -269.86618617009 -1.7E-05  2.0E-05  5.5E-04
etot  174  N  Y  0  N    -269.86621108486  2.5E-05  1.7E-05  3.6E-04
etot  175  N  Y  0  N    -269.86622372626  1.3E-05  2.1E-05  3.1E-04
etot  176  N  Y  0  N    -269.86623842199  1.5E-05  1.8E-05  2.5E-04
etot  177  N  Y  0  N    -269.86624616175  7.7E-06  1.7E-05  2.5E-04
etot  178  N  Y  0  N    -269.86624245726 -3.7E-06  1.4E-05  3.2E-04
etot  179  N  Y  0  N    -269.86624982355  7.4E-06  1.6E-05  2.8E-04
etot  180  N  Y  0  N    -269.86625960013  9.8E-06  1.4E-05  2.2E-04
etot  181  N  Y  0  N    -269.86626023451  6.3E-07  1.5E-05  2.6E-04
etot  182  N  Y  0  N    -269.86625192569 -8.3E-06  1.3E-05  4.2E-04
etot  183  N  Y  0  N    -269.86624126930 -1.1E-05  1.1E-05  5.4E-04
etot  184  N  Y  0  N    -269.86624923978  8.0E-06  1.6E-05  5.0E-04
etot  185  N  Y  0  N    -269.86626833243  1.9E-05  1.4E-05  3.0E-04
etot  186  N  Y  0  N    -269.86627790272  9.6E-06  1.6E-05  2.5E-04
etot  187  N  Y  0  N    -269.86628697646  9.1E-06  1.6E-05  2.0E-04
etot  188  N  Y  0  N    -269.86629323297  6.3E-06  1.9E-05  1.9E-04
etot  189  N  Y  0  N    -269.86628520122 -8.0E-06  9.7E-06  3.1E-04
etot  190  N  Y  0  N    -269.86628526405  6.3E-08  1.8E-05  3.5E-04
etot  191  N  Y  0  N    -269.86629935343  1.4E-05  1.5E-05  1.7E-04
etot  192  N  Y  0  N    -269.86630517518  5.8E-06  1.3E-05  1.6E-04
etot  193  N  Y  0  N    -269.86630638790  1.2E-06  1.1E-05  1.5E-04
etot  194  N  Y  0  N    -269.86630726638  8.8E-07  1.0E-05  1.8E-04
etot  195  N  Y  0  N    -269.86630607544 -1.2E-06  9.1E-06  2.6E-04
etot  196  N  Y  0  N    -269.86630490310 -1.2E-06  8.4E-06  3.1E-04
etot  197  N  Y  0  N    -269.86630701359  2.1E-06  9.3E-06  3.0E-04
etot  198  N  Y  0  N    -269.86631110356  4.1E-06  1.5E-05  2.7E-04
etot  199  N  Y  0  N    -269.86631920413  8.1E-06  1.2E-05  1.6E-04
etot  200  N  Y  0  N    -269.86632262532  3.4E-06  1.1E-05  1.5E-04
etot  201  N  Y  0  N    -269.86632276745  1.4E-07  9.0E-06  1.3E-04
etot  202  N  Y  0  N    -269.86632181156 -9.6E-07  1.1E-05  2.0E-04
etot  203  N  Y  0  N    -269.86632670317  4.9E-06  1.1E-05  1.1E-04
etot  204  N  Y  0  N    -269.86632953446  2.8E-06  9.7E-06  1.1E-04
etot  205  N  Y  0  N    -269.86633146585  1.9E-06  9.3E-06  1.0E-04
etot  206  N  Y  0  N    -269.86633312295  1.7E-06  8.9E-06  1.0E-04
etot  207  N  Y  0  N    -269.86633378345  6.6E-07  7.8E-06  1.0E-04
etot  208  N  Y  0  N    -269.86633427685  4.9E-07  7.3E-06  1.3E-04
etot  209  N  Y  0  N    -269.86633430714  3.0E-08  6.7E-06  1.7E-04
etot  210  N  Y  0  N    -269.86633495491  6.5E-07  9.6E-06  1.8E-04
etot  211  N  Y  0  N    -269.86633840830  3.5E-06  9.1E-06  1.0E-04
etot  212  N  Y  0  N    -269.86634020403  1.8E-06  8.4E-06  1.0E-04
etot  213  N  Y  0  N    -269.86634147104  1.3E-06  7.9E-06  9.8E-05
etot  214  N  Y  0  N    -269.86634265462  1.2E-06  1.0E-05  8.7E-05
etot  215  N  Y  0  N    -269.86634184169 -8.1E-07  6.1E-06  1.2E-04
etot  216  N  Y  0  N    -269.86634310462  1.3E-06  6.9E-06  9.7E-05
etot  217  N  Y  0  N    -269.86634471791  1.6E-06  7.5E-06  7.1E-05
etot  218  N  Y  0  N    -269.86634591802  1.2E-06  7.2E-06  7.1E-05
etot  219  N  Y  0  N    -269.86634677929  8.6E-07  7.4E-06  6.9E-05
etot  220  N  Y  0  N    -269.86634703709  2.6E-07  6.3E-06  7.7E-05
etot  221  N  Y  0  N    -269.86634627936 -7.6E-07  5.0E-06  1.4E-04
 No-fail mode: converged, returning to original basis set
etot    1  N  N  0  N    -269.86634613661           3.4E-03  3.6E-02
etot    2  Y  Y  0  N    -269.87414710158  7.8E-03  1.8E-03  9.5E-03
etot    3  N  Y  0  N    -269.87544701604  1.3E-03  5.3E-04  2.3E-03
etot    4  Y  Y  0  N    -269.87556890903  1.2E-04  1.9E-04  6.0E-04
etot    5  Y  Y  0  N    -269.87560162396  3.3E-05  7.6E-05  2.1E-04
etot    6  Y  Y  0  N    -269.87560872602  7.1E-06  3.7E-05  1.4E-04
etot    7  N  Y  0  N    -269.87561242629  3.7E-06  2.2E-05  1.1E-04
etot    8  N  Y  0  N    -269.87561390614  1.5E-06  1.4E-05  9.1E-05
etot    9  N  Y  0  N    -269.87561492204  1.0E-06  1.0E-05  7.7E-05
etot   10  N  Y  0  N    -269.87561570570  7.8E-07  8.3E-06  6.8E-05
etot   11  N  Y  0  N    -269.87561634231  6.4E-07  7.0E-06  6.2E-05
etot   12  N  Y  0  N    -269.87561675863  4.2E-07  5.6E-06  5.6E-05
etot   13  N  Y  0  N    -269.87561710984  3.5E-07  4.9E-06  5.4E-05
etot   14  N  N  0  N    -269.87561746701  3.6E-07  0.0E+00  0.0E+00
 ** Warning: Negative HOMO-LUMO gap encountered,
    re-running with vshift=0.0 is suggested
scf (DFT) done.
cutabab2 (abab integrals) done.
der1a (1-e 1st deriv.) done.
der1b (2-e 1st deriv.) done.
  Geometry optimization step   1
  Total energy:      -269.88097143479 hartrees
  gradient maximum:        1.5957E-01 .  (  4.5000E-04 )
  gradient rms:            4.0908E-02 .  (  3.0000E-04 )
  displacement maximum:    1.6311E-01 .  (  1.8000E-03 )
  displacement rms:        4.6430E-02 .  (  1.2000E-03 )
  
  predicted energy change: -6.2630E-02
  step size:     0.29729
  step size w/ dynamic constraints:  0.29729
  trust radius:  0.30000
---------------- geometry iteration   1 complete ----------------
geopt (optimize geometry) done.
onee (1-electron integrals) done.
probe (project orbitals) done.
grid (grid generation) done.
  
       i  u  d  i  g
       t  p  i  c  r                                 RMS    maximum
       e  d  i  u  i                       energy  density   DIIS  
       r  t  s  t  d       total energy    change  change    error 
  
etot    1  N  N  0  N    -269.90657521055           8.9E-04  1.2E-02
etot    2  Y  Y  0  N    -269.92477236489  1.8E-02  5.1E-04  4.9E-03
etot    3  N  Y  0  N    -269.92922610579  4.5E-03  3.0E-04  2.1E-03
etot    4  Y  Y  0  N    -269.93046704680  1.2E-03  2.0E-04  1.6E-03
etot    5  Y  Y  0  N    -269.93095829444  4.9E-04  1.4E-04  1.4E-03
etot    6  Y  Y  0  N    -269.93121092437  2.5E-04  1.0E-04  9.2E-04
etot    7  Y  Y  0  N    -269.93135656502  1.5E-04  7.8E-05  7.2E-04
etot    8  N  Y  0  N    -269.93144973532  9.3E-05  6.3E-05  5.6E-04
etot    9  Y  Y  0  N    -269.93152150375  7.2E-05  5.4E-05  5.4E-04
etot   10  Y  Y  0  N    -269.93157718076  5.6E-05  4.7E-05  5.0E-04
etot   11  N  Y  0  N    -269.93162142115  4.4E-05  4.3E-05  4.7E-04
etot   12  N  Y  0  N    -269.93166010386  3.9E-05  3.9E-05  4.5E-04
etot   13  N  Y  0  N    -269.93169269069  3.3E-05  3.7E-05  4.4E-04
etot   14  N  Y  0  N    -269.93172234913  3.0E-05  3.5E-05  4.0E-04
etot   15  N  Y  0  N    -269.93174293067  2.1E-05  3.1E-05  4.2E-04
etot   16  N  Y  0  N    -269.93176133374  1.8E-05  2.9E-05  4.3E-04
etot   17  N  Y  0  N    -269.93177963093  1.8E-05  2.8E-05  4.3E-04
etot   18  N  Y  0  N    -269.93179801080  1.8E-05  2.7E-05  4.1E-04
etot   19  N  Y  0  N    -269.93181507558  1.7E-05  2.7E-05  3.9E-04
etot   20  N  Y  0  N    -269.93183390482  1.9E-05  2.5E-05  3.4E-04
etot   21  N  Y  0  N    -269.93184793309  1.4E-05  2.3E-05  3.3E-04
etot   22  N  Y  0  N    -269.93185898869  1.1E-05  2.2E-05  3.2E-04
etot   23  N  Y  0  N    -269.93186578946  6.8E-06  2.0E-05  3.4E-04
etot   24  N  Y  0  N    -269.93187369501  7.9E-06  1.9E-05  3.5E-04
etot   25  N  Y  0  N    -269.93188206239  8.4E-06  1.9E-05  3.4E-04
etot   26  N  Y  0  N    -269.93189084486  8.8E-06  1.8E-05  3.1E-04
etot   27  N  Y  0  N    -269.93189958775  8.7E-06  1.7E-05  3.0E-04
etot   28  N  Y  0  N    -269.93190646385  6.9E-06  1.8E-05  3.0E-04
etot   29  N  Y  0  N    -269.93191720210  1.1E-05  1.6E-05  2.5E-04
etot   30  N  Y  0  N    -269.93192349913  6.3E-06  1.5E-05  2.5E-04
etot   31  N  Y  0  N    -269.93192874397  5.2E-06  1.4E-05  2.3E-04
etot   32  N  Y  0  N    -269.93193313159  4.4E-06  1.4E-05  2.3E-04
etot   33  N  Y  0  N    -269.93193457590  1.4E-06  1.3E-05  2.5E-04
etot   34  N  Y  0  N    -269.93193751660  2.9E-06  1.4E-05  2.7E-04
etot   35  N  Y  0  N    -269.93194206380  4.5E-06  1.2E-05  2.6E-04
etot   36  N  Y  0  N    -269.93194696166  4.9E-06  1.1E-05  2.2E-04
etot   37  N  Y  0  N    -269.93194983100  2.9E-06  1.1E-05  2.2E-04
etot   38  N  Y  0  N    -269.93195191447  2.1E-06  1.1E-05  2.4E-04
etot   39  N  Y  0  N    -269.93195504003  3.1E-06  1.0E-05  2.3E-04
etot   40  N  Y  0  N    -269.93195943473  4.4E-06  1.2E-05  1.7E-04
etot   41  N  Y  0  N    -269.93196433048  4.9E-06  1.0E-05  1.4E-04
etot   42  N  Y  0  N    -269.93196715063  2.8E-06  9.5E-06  1.3E-04
etot   43  N  Y  0  N    -269.93196915579  2.0E-06  9.6E-06  1.2E-04
etot   44  N  Y  0  N    -269.93197153278  2.4E-06  9.8E-06  1.1E-04
etot   45  N  Y  0  N    -269.93197295021  1.4E-06  8.3E-06  1.1E-04
etot   46  N  Y  0  N    -269.93197424705  1.3E-06  7.9E-06  1.1E-04
etot   47  N  Y  0  N    -269.93197542449  1.2E-06  7.9E-06  1.1E-04
etot   48  N  Y  0  N    -269.93197716148  1.7E-06  7.4E-06  9.8E-05
etot   49  N  Y  0  N    -269.93197824439  1.1E-06  6.8E-06  9.8E-05
etot   50  N  Y  0  N    -269.93197872507  4.8E-07  6.7E-06  1.1E-04
etot   51  N  Y  0  N    -269.93198014147  1.4E-06  6.2E-06  9.5E-05
etot   52  N  Y  0  N    -269.93198096877  8.3E-07  6.0E-06  9.5E-05
etot   53  N  Y  0  N    -269.93198173906  7.7E-07  5.5E-06  9.1E-05
etot   54  N  Y  0  N    -269.93198234274  6.0E-07  6.0E-06  8.6E-05
etot   55  N  Y  0  N    -269.93198344151  1.1E-06  5.5E-06  8.3E-05
etot   56  N  Y  0  N    -269.93198419830  7.6E-07  5.1E-06  7.1E-05
etot   57  N  Y  0  N    -269.93198476215  5.6E-07  4.8E-06  6.6E-05
etot   58  N  N  0  N    -269.93198511628  3.5E-07  0.0E+00  0.0E+00
scf (DFT) done.
cutabab2 (abab integrals) done.
der1a (1-e 1st deriv.) done.
der1b (2-e 1st deriv.) done.
  Geometry optimization step   2
  Total energy:      -269.93734857916 hartrees
  energy change:          -5.6377E-02 .  (  5.0000E-05 )
  gradient maximum:        6.1623E-02 .  (  4.5000E-04 )
  gradient rms:            2.4524E-02 .  (  3.0000E-04 )
  displacement maximum:    1.1168E-01 .  (  1.8000E-03 )
  displacement rms:        4.6689E-02 .  (  1.2000E-03 )
  
  predicted energy change: -4.2324E-02
  step size:     0.29895
  step size w/ dynamic constraints:  0.29895
  trust radius:  0.30000
---------------- geometry iteration   2 complete ----------------
geopt (optimize geometry) done.
onee (1-electron integrals) done.
probe (project orbitals) done.
grid (grid generation) done.
  
       i  u  d  i  g
       t  p  i  c  r                                 RMS    maximum
       e  d  i  u  i                       energy  density   DIIS  
       r  t  s  t  d       total energy    change  change    error 
  
etot    1  N  N  0  N    -269.96137208819           5.8E-04  6.7E-03
etot    2  Y  Y  0  N    -269.96828309896  6.9E-03  2.9E-04  2.9E-03
etot    3  N  Y  0  N    -269.96970273942  1.4E-03  1.6E-04  1.9E-03
etot    4  Y  Y  0  N    -269.97013083464  4.3E-04  1.0E-04  1.2E-03
etot    5  Y  Y  0  N    -269.97027850843  1.5E-04  7.1E-05  7.5E-04
etot    6  Y  Y  0  N    -269.97035894402  8.0E-05  5.3E-05  4.7E-04
etot    7  Y  Y  0  N    -269.97040518168  4.6E-05  4.2E-05  3.8E-04
etot    8  N  Y  0  N    -269.97043250946  2.7E-05  3.5E-05  3.6E-04
etot    9  N  Y  0  N    -269.97045732891  2.5E-05  3.1E-05  3.4E-04
etot   10  N  Y  0  N    -269.97047718645  2.0E-05  2.8E-05  3.2E-04
etot   11  N  Y  0  N    -269.97049347005  1.6E-05  2.5E-05  3.1E-04
etot   12  N  Y  0  N    -269.97050775914  1.4E-05  2.3E-05  2.9E-04
etot   13  N  Y  0  N    -269.97051870136  1.1E-05  2.1E-05  2.8E-04
etot   14  N  Y  0  N    -269.97052816407  9.5E-06  1.9E-05  2.8E-04
etot   15  N  Y  0  N    -269.97053671643  8.6E-06  1.8E-05  2.7E-04
etot   16  N  Y  0  N    -269.97054467094  8.0E-06  1.7E-05  2.4E-04
etot   17  N  Y  0  N    -269.97055141023  6.7E-06  1.6E-05  2.3E-04
etot   18  N  Y  0  N    -269.97055680533  5.4E-06  1.4E-05  2.2E-04
etot   19  N  Y  0  N    -269.97056160811  4.8E-06  1.3E-05  2.1E-04
etot   20  N  Y  0  N    -269.97056576851  4.2E-06  1.3E-05  2.0E-04
etot   21  N  Y  0  N    -269.97056971516  3.9E-06  1.2E-05  1.8E-04
etot   22  N  Y  0  N    -269.97057264470  2.9E-06  1.1E-05  1.7E-04
etot   23  N  Y  0  N    -269.97057528695  2.6E-06  1.0E-05  1.7E-04
etot   24  N  Y  0  N    -269.97057794857  2.7E-06  9.3E-06  1.5E-04
etot   25  N  Y  0  N    -269.97058016652  2.2E-06  8.8E-06  1.5E-04
etot   26  N  Y  0  N    -269.97058199454  1.8E-06  8.1E-06  1.3E-04
etot   27  N  Y  0  N    -269.97058380578  1.8E-06  7.6E-06  1.3E-04
etot   28  N  Y  0  N    -269.97058529143  1.5E-06  7.1E-06  1.2E-04
etot   29  N  Y  0  N    -269.97058660466  1.3E-06  6.6E-06  1.1E-04
etot   30  N  Y  0  N    -269.97058766029  1.1E-06  6.1E-06  1.0E-04
etot   31  N  Y  0  N    -269.97058858189  9.2E-07  5.6E-06  1.0E-04
etot   32  N  Y  0  N    -269.97058927305  6.9E-07  5.2E-06  1.0E-04
etot   33  N  Y  0  N    -269.97059003245  7.6E-07  4.9E-06  9.7E-05
etot   34  N  N  0  N    -269.97059058142  5.5E-07  0.0E+00  0.0E+00
scf (DFT) done.
cutabab2 (abab integrals) done.
der1a (1-e 1st deriv.) done.
der1b (2-e 1st deriv.) done.
  Geometry optimization step   3
  Total energy:      -269.97596961349 hartrees
  energy change:          -3.8621E-02 .  (  5.0000E-05 )
  gradient maximum:        5.5067E-02 .  (  4.5000E-04 )
  gradient rms:            1.8909E-02 .  (  3.0000E-04 )
  displacement maximum:    1.5019E-01 .  (  1.8000E-03 )
  displacement rms:        4.6643E-02 .  (  1.2000E-03 )
  
  predicted energy change: -3.2956E-02
  step size:     0.29866
  step size w/ dynamic constraints:  0.29866
  trust radius:  0.30000
---------------- geometry iteration   3 complete ----------------
geopt (optimize geometry) done.
onee (1-electron integrals) done.
probe (project orbitals) done.
grid (grid generation) done.
  
       i  u  d  i  g
       t  p  i  c  r                                 RMS    maximum
       e  d  i  u  i                       energy  density   DIIS  
       r  t  s  t  d       total energy    change  change    error 
  
etot    1  N  N  0  N    -269.98748419168           6.0E-04  7.5E-03
etot    2  Y  Y  0  N    -269.99688237251  9.4E-03  3.2E-04  2.9E-03
etot    3  N  Y  0  N    -269.99896352689  2.1E-03  1.8E-04  2.1E-03
etot    4  Y  Y  0  N    -269.99955587980  5.9E-04  1.1E-04  1.0E-03
etot    5  Y  Y  0  N    -269.99975266727  2.0E-04  7.6E-05  8.6E-04
etot    6  Y  Y  0  N    -269.99984656953  9.4E-05  5.4E-05  6.1E-04
etot    7  Y  Y  0  N    -269.99989105561  4.4E-05  3.8E-05  3.7E-04
etot    8  N  Y  0  N    -269.99990679626  1.6E-05  2.9E-05  2.9E-04
etot    9  N  Y  0  N    -269.99992260829  1.6E-05  2.3E-05  2.4E-04
etot   10  N  Y  0  N    -269.99993239314  9.8E-06  1.9E-05  2.2E-04
etot   11  N  Y  0  N    -269.99993955593  7.2E-06  1.5E-05  2.0E-04
etot   12  N  Y  0  N    -269.99994445590  4.9E-06  1.3E-05  1.7E-04
etot   13  N  Y  0  N    -269.99994832246  3.9E-06  1.1E-05  1.4E-04
etot   14  N  Y  0  N    -269.99995118194  2.9E-06  9.8E-06  1.4E-04
etot   15  N  Y  0  N    -269.99995340939  2.2E-06  8.5E-06  1.3E-04
etot   16  N  Y  0  N    -269.99995519327  1.8E-06  7.6E-06  1.1E-04
etot   17  N  Y  0  N    -269.99995655699  1.4E-06  6.7E-06  1.0E-04
etot   18  N  Y  0  N    -269.99995758967  1.0E-06  5.9E-06  9.3E-05
etot   19  N  Y  0  N    -269.99995846726  8.8E-07  5.5E-06  8.2E-05
etot   20  N  Y  0  N    -269.99995928526  8.2E-07  4.8E-06  7.4E-05
etot   21  N  N  0  N    -269.99995985874  5.7E-07  0.0E+00  0.0E+00
scf (DFT) done.
cutabab2 (abab integrals) done.
der1a (1-e 1st deriv.) done.
der1b (2-e 1st deriv.) done.
  Geometry optimization step   4
  Total energy:      -270.00535665994 hartrees
  energy change:          -2.9387E-02 .  (  5.0000E-05 )
  gradient maximum:        4.8448E-02 .  (  4.5000E-04 )
  gradient rms:            1.5938E-02 .  (  3.0000E-04 )
  displacement maximum:    1.4899E-01 .  (  1.8000E-03 )
  displacement rms:        4.6615E-02 .  (  1.2000E-03 )
  
  predicted energy change: -2.6134E-02
  step size:     0.29848
  step size w/ dynamic constraints:  0.29848
  trust radius:  0.30000
---------------- geometry iteration   4 complete ----------------
geopt (optimize geometry) done.
onee (1-electron integrals) done.
probe (project orbitals) done.
grid (grid generation) done.
  
       i  u  d  i  g
       t  p  i  c  r                                 RMS    maximum
       e  d  i  u  i                       energy  density   DIIS  
       r  t  s  t  d       total energy    change  change    error 
  
etot    1  N  N  0  N    -270.01790580473           4.9E-04  6.0E-03
etot    2  Y  Y  0  N    -270.02331015322  5.4E-03  2.6E-04  2.2E-03
etot    3  N  Y  0  N    -270.02449256974  1.2E-03  1.5E-04  1.6E-03
etot    4  Y  Y  0  N    -270.02491192575  4.2E-04  9.5E-05  8.0E-04
etot    5  Y  Y  0  N    -270.02506009798  1.5E-04  6.6E-05  6.7E-04
etot    6  Y  Y  0  N    -270.02514126726  8.1E-05  4.9E-05  5.4E-04
etot    7  N  Y  0  N    -270.02517525351  3.4E-05  3.7E-05  4.6E-04
etot    8  N  Y  0  N    -270.02520291955  2.8E-05  3.0E-05  3.9E-04
etot    9  N  Y  0  N    -270.02522113621  1.8E-05  2.5E-05  3.5E-04
etot   10  N  Y  0  N    -270.02523324761  1.2E-05  2.0E-05  3.2E-04
etot   11  N  Y  0  N    -270.02524214548  8.9E-06  1.7E-05  2.8E-04
etot   12  N  Y  0  N    -270.02524902015  6.9E-06  1.5E-05  2.5E-04
etot   13  N  Y  0  N    -270.02525390819  4.9E-06  1.3E-05  2.1E-04
etot   14  N  Y  0  N    -270.02525768644  3.8E-06  1.1E-05  1.8E-04
etot   15  N  Y  0  N    -270.02526052264  2.8E-06  9.5E-06  1.6E-04
etot   16  N  Y  0  N    -270.02526270799  2.2E-06  8.2E-06  1.5E-04
etot   17  N  Y  0  N    -270.02526433820  1.6E-06  7.2E-06  1.3E-04
etot   18  N  Y  0  N    -270.02526564506  1.3E-06  6.3E-06  1.2E-04
etot   19  N  Y  0  N    -270.02526667467  1.0E-06  6.0E-06  1.1E-04
etot   20  N  Y  0  N    -270.02526764412  9.7E-07  5.2E-06  9.3E-05
etot   21  N  Y  0  N    -270.02526838950  7.5E-07  4.4E-06  7.9E-05
etot   22  N  N  0  N    -270.02526881165  4.2E-07  0.0E+00  0.0E+00
scf (DFT) done.
cutabab2 (abab integrals) done.
der1a (1-e 1st deriv.) done.
der1b (2-e 1st deriv.) done.
  Geometry optimization step   5
  Total energy:      -270.03069592132 hartrees
  energy change:          -2.5339E-02 .  (  5.0000E-05 )
  gradient maximum:        4.2761E-02 .  (  4.5000E-04 )
  gradient rms:            1.2241E-02 .  (  3.0000E-04 )
  displacement maximum:    1.6680E-01 .  (  1.8000E-03 )
  displacement rms:        4.6620E-02 .  (  1.2000E-03 )
  
  predicted energy change: -2.1086E-02
  step size:     0.29850
  step size w/ dynamic constraints:  0.29851
  trust radius:  0.30000
---------------- geometry iteration   5 complete ----------------
geopt (optimize geometry) done.
onee (1-electron integrals) done.
probe (project orbitals) done.
grid (grid generation) done.
  
       i  u  d  i  g
       t  p  i  c  r                                 RMS    maximum
       e  d  i  u  i                       energy  density   DIIS  
       r  t  s  t  d       total energy    change  change    error 
  
etot    1  N  N  0  N    -270.03982754757           4.4E-04  6.6E-03
etot    2  Y  Y  0  N    -270.04453778467  4.7E-03  2.4E-04  2.6E-03
etot    3  Y  Y  0  N    -270.04569596992  1.2E-03  1.4E-04  1.6E-03
etot    4  N  Y  0  N    -270.04611908902  4.2E-04  9.5E-05  9.8E-04
etot    5  Y  Y  0  N    -270.04629344062  1.7E-04  6.9E-05  9.0E-04
etot    6  Y  Y  0  N    -270.04639231265  9.9E-05  5.3E-05  7.1E-04
etot    7  Y  Y  0  N    -270.04644854144  5.6E-05  4.1E-05  5.9E-04
etot    8  N  Y  0  N    -270.04648112014  3.3E-05  3.3E-05  4.9E-04
etot    9  N  Y  0  N    -270.04650466648  2.4E-05  2.7E-05  4.3E-04
etot   10  N  Y  0  N    -270.04651992176  1.5E-05  2.2E-05  3.8E-04
etot   11  N  Y  0  N    -270.04653117867  1.1E-05  1.9E-05  3.2E-04
etot   12  N  Y  0  N    -270.04653900326  7.8E-06  1.6E-05  2.8E-04
etot   13  N  Y  0  N    -270.04654543939  6.4E-06  1.3E-05  2.4E-04
etot   14  N  Y  0  N    -270.04654942016  4.0E-06  1.1E-05  2.1E-04
etot   15  N  Y  0  N    -270.04655239379  3.0E-06  9.5E-06  1.8E-04
etot   16  N  Y  0  N    -270.04655472984  2.3E-06  8.1E-06  1.6E-04
etot   17  N  Y  0  N    -270.04655652775  1.8E-06  6.9E-06  1.4E-04
etot   18  N  Y  0  N    -270.04655786930  1.3E-06  5.9E-06  1.3E-04
etot   19  N  Y  0  N    -270.04655889194  1.0E-06  5.2E-06  1.1E-04
etot   20  N  Y  0  N    -270.04655969093  8.0E-07  4.5E-06  9.9E-05
etot   21  N  N  0  N    -270.04656032594  6.4E-07  0.0E+00  0.0E+00
scf (DFT) done.
cutabab2 (abab integrals) done.
der1a (1-e 1st deriv.) done.
der1b (2-e 1st deriv.) done.
  Geometry optimization step   6
  Total energy:      -270.05202383232 hartrees
  energy change:          -2.1328E-02 .  (  5.0000E-05 )
  gradient maximum:        3.4956E-02 .  (  4.5000E-04 )
  gradient rms:            1.0619E-02 .  (  3.0000E-04 )
  displacement maximum:    1.5790E-01 .  (  1.8000E-03 )
  displacement rms:        4.6665E-02 .  (  1.2000E-03 )
  
  predicted energy change: -1.8663E-02
  step size:     0.29878
  step size w/ dynamic constraints:  0.29880
  trust radius:  0.30000
---------------- geometry iteration   6 complete ----------------
geopt (optimize geometry) done.
onee (1-electron integrals) done.
probe (project orbitals) done.
grid (grid generation) done.
  
       i  u  d  i  g
       t  p  i  c  r                                 RMS    maximum
       e  d  i  u  i                       energy  density   DIIS  
       r  t  s  t  d       total energy    change  change    error 
  
etot    1  N  N  0  N    -270.05832829786           4.4E-04  6.5E-03
etot    2  Y  Y  0  N    -270.06307064614  4.7E-03  2.4E-04  2.6E-03
etot    3  Y  Y  0  N    -270.06430044758  1.2E-03  1.5E-04  1.7E-03
etot    4  N  Y  0  N    -270.06479614892  5.0E-04  1.0E-04  1.2E-03
etot    5  Y  Y  0  N    -270.06500062608  2.0E-04  7.5E-05  1.0E-03
etot    6  Y  Y  0  N    -270.06511739124  1.2E-04  5.7E-05  8.1E-04
etot    7  Y  Y  0  N    -270.06518271670  6.5E-05  4.4E-05  6.7E-04
etot    8  N  Y  0  N    -270.06522192709  3.9E-05  3.5E-05  5.6E-04
etot    9  N  Y  0  N    -270.06524730371  2.5E-05  2.8E-05  4.8E-04
etot   10  N  Y  0  N    -270.06526365483  1.6E-05  2.3E-05  4.1E-04
etot   11  N  Y  0  N    -270.06527542017  1.2E-05  1.8E-05  3.4E-04
etot   12  N  Y  0  N    -270.06528371773  8.3E-06  1.5E-05  3.0E-04
etot   13  N  Y  0  N    -270.06528980453  6.1E-06  1.3E-05  2.5E-04
etot   14  N  Y  0  N    -270.06529364591  3.8E-06  1.0E-05  2.2E-04
etot   15  N  Y  0  N    -270.06529647753  2.8E-06  8.7E-06  1.9E-04
etot   16  N  Y  0  N    -270.06529843210  2.0E-06  7.3E-06  1.6E-04
etot   17  N  Y  0  N    -270.06529993591  1.5E-06  6.1E-06  1.4E-04
etot   18  N  Y  0  N    -270.06530102916  1.1E-06  5.1E-06  1.2E-04
etot   19  N  Y  0  N    -270.06530182908  8.0E-07  4.4E-06  1.1E-04
etot   20  N  N  0  N    -270.06530245051  6.2E-07  0.0E+00  0.0E+00
scf (DFT) done.
cutabab2 (abab integrals) done.
der1a (1-e 1st deriv.) done.
der1b (2-e 1st deriv.) done.
  Geometry optimization step   7
  Total energy:      -270.07080619594 hartrees
  energy change:          -1.8782E-02 .  (  5.0000E-05 )
  gradient maximum:        2.6655E-02 .  (  4.5000E-04 )
  gradient rms:            9.4403E-03 .  (  3.0000E-04 )
  displacement maximum:    1.3497E-01 .  (  1.8000E-03 )
  displacement rms:        4.6729E-02 .  (  1.2000E-03 )
  
  predicted energy change: -1.6782E-02
  step size:     0.29916
  step size w/ dynamic constraints:  0.29921
  trust radius:  0.30000
---------------- geometry iteration   7 complete ----------------
geopt (optimize geometry) done.
onee (1-electron integrals) done.
probe (project orbitals) done.
grid (grid generation) done.
  
       i  u  d  i  g
       t  p  i  c  r                                 RMS    maximum
       e  d  i  u  i                       energy  density   DIIS  
       r  t  s  t  d       total energy    change  change    error 
  
etot    1  N  N  0  N    -270.07401115743           4.6E-04  6.4E-03
etot    2  Y  Y  0  N    -270.07949287277  5.5E-03  2.6E-04  2.8E-03
etot    3  N  Y  0  N    -270.08092702186  1.4E-03  1.6E-04  2.1E-03
etot    4  Y  Y  0  N    -270.08153262935  6.1E-04  1.1E-04  1.3E-03
etot    5  Y  Y  0  N    -270.08176719225  2.3E-04  7.8E-05  1.0E-03
etot    6  Y  Y  0  N    -270.08189921667  1.3E-04  5.9E-05  8.5E-04
etot    7  Y  Y  0  N    -270.08197038726  7.1E-05  4.5E-05  7.1E-04
etot    8  N  Y  0  N    -270.08201397296  4.4E-05  3.5E-05  5.9E-04
etot    9  N  Y  0  N    -270.08204006990  2.6E-05  2.8E-05  4.9E-04
etot   10  N  Y  0  N    -270.08205708231  1.7E-05  2.2E-05  3.9E-04
etot   11  N  Y  0  N    -270.08206815556  1.1E-05  1.8E-05  3.4E-04
etot   12  N  Y  0  N    -270.08207607754  7.9E-06  1.4E-05  2.9E-04
etot   13  N  Y  0  N    -270.08208118855  5.1E-06  1.2E-05  2.6E-04
etot   14  N  Y  0  N    -270.08208486127  3.7E-06  9.7E-06  2.2E-04
etot   15  N  Y  0  N    -270.08208743296  2.6E-06  7.9E-06  1.9E-04
etot   16  N  Y  0  N    -270.08208918891  1.8E-06  6.6E-06  1.6E-04
etot   17  N  Y  0  N    -270.08209036740  1.2E-06  5.5E-06  1.3E-04
etot   18  N  Y  0  N    -270.08209125119  8.8E-07  4.6E-06  1.1E-04
etot   19  N  N  0  N    -270.08209189251  6.4E-07  0.0E+00  0.0E+00
scf (DFT) done.
cutabab2 (abab integrals) done.
der1a (1-e 1st deriv.) done.
der1b (2-e 1st deriv.) done.
  Geometry optimization step   8
  Total energy:      -270.08763387501 hartrees
  energy change:          -1.6828E-02 .  (  5.0000E-05 )
  gradient maximum:        2.1397E-02 .  (  4.5000E-04 )
  gradient rms:            8.3917E-03 .  (  3.0000E-04 )
  displacement maximum:    1.1607E-01 .  (  1.8000E-03 )
  displacement rms:        4.6776E-02 .  (  1.2000E-03 )
  
  predicted energy change: -1.4886E-02
  step size:     0.29943
  step size w/ dynamic constraints:  0.29951
  trust radius:  0.30000
---------------- geometry iteration   8 complete ----------------
geopt (optimize geometry) done.
onee (1-electron integrals) done.
probe (project orbitals) done.
grid (grid generation) done.
  
       i  u  d  i  g
       t  p  i  c  r                                 RMS    maximum
       e  d  i  u  i                       energy  density   DIIS  
       r  t  s  t  d       total energy    change  change    error 
  
etot    1  N  N  0  N    -270.08766128537           5.2E-04  7.3E-03
etot    2  Y  Y  0  N    -270.09429601784  6.6E-03  2.6E-04  2.9E-03
etot    3  N  Y  0  N    -270.09566547493  1.4E-03  1.6E-04  2.0E-03
etot    4  Y  Y  0  N    -270.09627193628  6.1E-04  1.1E-04  1.3E-03
etot    5  Y  Y  0  N    -270.09649037564  2.2E-04  7.4E-05  9.5E-04
etot    6  Y  Y  0  N    -270.09660722383  1.2E-04  5.4E-05  7.7E-04
etot    7  Y  Y  0  N    -270.09666754931  6.0E-05  4.0E-05  6.5E-04
etot    8  N  Y  0  N    -270.09670418903  3.7E-05  3.1E-05  5.4E-04
etot    9  N  Y  0  N    -270.09672500209  2.1E-05  2.4E-05  4.5E-04
etot   10  N  Y  0  N    -270.09673819433  1.3E-05  1.9E-05  3.5E-04
etot   11  N  Y  0  N    -270.09674631423  8.1E-06  1.5E-05  3.0E-04
etot   12  N  Y  0  N    -270.09675182438  5.5E-06  1.2E-05  2.6E-04
etot   13  N  Y  0  N    -270.09675544348  3.6E-06  9.8E-06  2.3E-04
etot   14  N  Y  0  N    -270.09675793360  2.5E-06  7.9E-06  1.9E-04
etot   15  N  Y  0  N    -270.09675958745  1.7E-06  6.4E-06  1.6E-04
etot   16  N  Y  0  N    -270.09676072210  1.1E-06  5.3E-06  1.4E-04
etot   17  N  Y  0  N    -270.09676145557  7.3E-07  4.3E-06  1.1E-04
etot   18  N  N  0  N    -270.09676199351  5.4E-07  0.0E+00  0.0E+00
scf (DFT) done.
cutabab2 (abab integrals) done.
der1a (1-e 1st deriv.) done.
der1b (2-e 1st deriv.) done.
  Geometry optimization step   9
  Total energy:      -270.10234951321 hartrees
  energy change:          -1.4716E-02 .  (  5.0000E-05 )
  gradient maximum:        1.8828E-02 .  (  4.5000E-04 )
  gradient rms:            7.1617E-03 .  (  3.0000E-04 )
  displacement maximum:    1.2164E-01 .  (  1.8000E-03 )
  displacement rms:        4.6797E-02 .  (  1.2000E-03 )
  
  predicted energy change: -1.2392E-02
  step size:     0.29956
  step size w/ dynamic constraints:  0.29965
  trust radius:  0.30000
---------------- geometry iteration   9 complete ----------------
geopt (optimize geometry) done.
onee (1-electron integrals) done.
probe (project orbitals) done.
grid (grid generation) done.
  
       i  u  d  i  g
       t  p  i  c  r                                 RMS    maximum
       e  d  i  u  i                       energy  density   DIIS  
       r  t  s  t  d       total energy    change  change    error 
  
etot    1  N  N  0  N    -270.09801361857           5.7E-04  8.9E-03
etot    2  Y  Y  0  N    -270.10606015080  8.0E-03  2.8E-04  3.1E-03
etot    3  N  Y  0  N    -270.10761636307  1.6E-03  1.7E-04  2.4E-03
etot    4  Y  Y  0  N    -270.10826941384  6.5E-04  1.1E-04  1.2E-03
etot    5  Y  Y  0  N    -270.10848689075  2.2E-04  7.1E-05  8.4E-04
etot    6  Y  Y  0  N    -270.10859612802  1.1E-04  5.1E-05  6.7E-04
etot    7  Y  Y  0  N    -270.10864993953  5.4E-05  3.7E-05  5.7E-04
etot    8  N  Y  0  N    -270.10867980140  3.0E-05  2.8E-05  4.7E-04
etot    9  N  Y  0  N    -270.10869714007  1.7E-05  2.1E-05  3.9E-04
etot   10  N  Y  0  N    -270.10870767187  1.1E-05  1.7E-05  3.0E-04
etot   11  N  Y  0  N    -270.10871398574  6.3E-06  1.3E-05  2.5E-04
etot   12  N  Y  0  N    -270.10871809082  4.1E-06  1.0E-05  2.2E-04
etot   13  N  Y  0  N    -270.10872078908  2.7E-06  8.2E-06  1.8E-04
etot   14  N  Y  0  N    -270.10872243311  1.6E-06  6.6E-06  1.6E-04
etot   15  N  Y  0  N    -270.10872356722  1.1E-06  5.3E-06  1.3E-04
etot   16  N  Y  0  N    -270.10872432948  7.6E-07  4.4E-06  1.1E-04
etot   17  N  N  0  N    -270.10872484773  5.2E-07  0.0E+00  0.0E+00
scf (DFT) done.
cutabab2 (abab integrals) done.
der1a (1-e 1st deriv.) done.
der1b (2-e 1st deriv.) done.
  Geometry optimization step  10
  Total energy:      -270.11437567219 hartrees
  energy change:          -1.2026E-02 .  (  5.0000E-05 )
  gradient maximum:        1.4269E-02 .  (  4.5000E-04 )
  gradient rms:            5.5461E-03 .  (  3.0000E-04 )
  displacement maximum:    1.2284E-01 .  (  1.8000E-03 )
  displacement rms:        4.6812E-02 .  (  1.2000E-03 )
  
  predicted energy change: -8.9982E-03
  step size:     0.29966
  step size w/ dynamic constraints:  0.29974
  trust radius:  0.30000
---------------- geometry iteration  10 complete ----------------
geopt (optimize geometry) done.
onee (1-electron integrals) done.
probe (project orbitals) done.
grid (grid generation) done.
  
       i  u  d  i  g
       t  p  i  c  r                                 RMS    maximum
       e  d  i  u  i                       energy  density   DIIS  
       r  t  s  t  d       total energy    change  change    error 
  
etot    1  N  N  0  N    -270.10567986037           6.0E-04  1.1E-02
etot    2  Y  Y  0  N    -270.11460294454  8.9E-03  2.9E-04  3.2E-03
etot    3  N  Y  0  N    -270.11626238381  1.7E-03  1.7E-04  2.3E-03
etot    4  Y  Y  0  N    -270.11689959718  6.4E-04  1.0E-04  1.1E-03
etot    5  Y  Y  0  N    -270.11709988825  2.0E-04  6.7E-05  8.9E-04
etot    6  Y  Y  0  N    -270.11719373994  9.4E-05  4.6E-05  6.4E-04
etot    7  N  Y  0  N    -270.11723543928  4.2E-05  3.2E-05  5.2E-04
etot    8  N  Y  0  N    -270.11725880213  2.3E-05  2.4E-05  3.5E-04
etot    9  N  Y  0  N    -270.11727153829  1.3E-05  1.8E-05  3.2E-04
etot   10  N  Y  0  N    -270.11727885660  7.3E-06  1.3E-05  2.6E-04
etot   11  N  Y  0  N    -270.11728307616  4.2E-06  1.0E-05  2.2E-04
etot   12  N  Y  0  N    -270.11728571665  2.6E-06  8.2E-06  1.7E-04
etot   13  N  Y  0  N    -270.11728736474  1.6E-06  6.4E-06  1.3E-04
etot   14  N  Y  0  N    -270.11728835108  9.9E-07  5.0E-06  1.0E-04
etot   15  N  Y  0  N    -270.11728899744  6.5E-07  4.0E-06  8.2E-05
etot   16  N  N  0  N    -270.11728941315  4.2E-07  0.0E+00  0.0E+00
scf (DFT) done.
cutabab2 (abab integrals) done.
der1a (1-e 1st deriv.) done.
der1b (2-e 1st deriv.) done.
  Geometry optimization step  11
  Total energy:      -270.12302781474 hartrees
  energy change:          -8.6521E-03 .  (  5.0000E-05 )
  gradient maximum:        8.5569E-03 .  (  4.5000E-04 )
  gradient rms:            3.5547E-03 .  (  3.0000E-04 )
  displacement maximum:    1.1666E-01 .  (  1.8000E-03 )
  displacement rms:        4.6832E-02 .  (  1.2000E-03 )
  
  predicted energy change: -4.6829E-03
  step size:     0.29981
  step size w/ dynamic constraints:  0.29987
  trust radius:  0.30000
---------------- geometry iteration  11 complete ----------------
geopt (optimize geometry) done.
onee (1-electron integrals) done.
probe (project orbitals) done.
grid (grid generation) done.
  
       i  u  d  i  g
       t  p  i  c  r                                 RMS    maximum
       e  d  i  u  i                       energy  density   DIIS  
       r  t  s  t  d       total energy    change  change    error 
  
etot    1  N  N  0  N    -270.11050240339           5.9E-04  1.1E-02
etot    2  Y  Y  0  N    -270.11923836347  8.7E-03  2.7E-04  3.1E-03
etot    3  N  Y  0  N    -270.12079225158  1.6E-03  1.6E-04  1.8E-03
etot    4  Y  Y  0  N    -270.12133335141  5.4E-04  9.5E-05  1.2E-03
etot    5  Y  Y  0  N    -270.12150074542  1.7E-04  6.1E-05  9.1E-04
etot    6  Y  Y  0  N    -270.12157506138  7.4E-05  4.1E-05  6.6E-04
etot    7  N  Y  0  N    -270.12160709751  3.2E-05  2.8E-05  5.2E-04
etot    8  N  Y  0  N    -270.12162419996  1.7E-05  2.0E-05  3.7E-04
etot    9  N  Y  0  N    -270.12163319563  9.0E-06  1.5E-05  3.1E-04
etot   10  N  Y  0  N    -270.12163815921  5.0E-06  1.1E-05  2.4E-04
etot   11  N  Y  0  N    -270.12164095652  2.8E-06  8.4E-06  2.0E-04
etot   12  N  Y  0  N    -270.12164263415  1.7E-06  6.4E-06  1.5E-04
etot   13  N  Y  0  N    -270.12164360110  9.7E-07  4.9E-06  1.1E-04
etot   14  N  N  0  N    -270.12164419369  5.9E-07  0.0E+00  0.0E+00
scf (DFT) done.
cutabab2 (abab integrals) done.
der1a (1-e 1st deriv.) done.
der1b (2-e 1st deriv.) done.
  Geometry optimization step  12
  Total energy:      -270.12748178642 hartrees
  energy change:          -4.4540E-03 .  (  5.0000E-05 )
  gradient maximum:        4.1696E-03 .  (  4.5000E-04 )
  gradient rms:            1.5760E-03 .  (  3.0000E-04 )
  displacement maximum:    9.1762E-02 .  (  1.8000E-03 )
  displacement rms:        2.6061E-02 .  (  1.2000E-03 )
  
  predicted energy change: -6.5527E-04
  step size:     0.16683
  step size w/ dynamic constraints:  0.16687
  trust radius:  0.30000
---------------- geometry iteration  12 complete ----------------
geopt (optimize geometry) done.
onee (1-electron integrals) done.
probe (project orbitals) done.
grid (grid generation) done.
  
       i  u  d  i  g
       t  p  i  c  r                                 RMS    maximum
       e  d  i  u  i                       energy  density   DIIS  
       r  t  s  t  d       total energy    change  change    error 
  
etot    1  N  N  0  N    -270.12016036526           2.6E-04  4.4E-03
etot    2  Y  Y  0  N    -270.12181436394  1.7E-03  1.2E-04  1.6E-03
etot    3  Y  Y  0  N    -270.12211767074  3.0E-04  7.1E-05  8.2E-04
etot    4  Y  Y  0  N    -270.12221156829  9.4E-05  4.2E-05  5.7E-04
etot    5  N  Y  0  N    -270.12224413678  3.3E-05  2.7E-05  3.9E-04
etot    6  N  Y  0  N    -270.12225765411  1.4E-05  1.8E-05  3.1E-04
etot    7  N  Y  0  N    -270.12226351896  5.9E-06  1.2E-05  2.3E-04
etot    8  N  Y  0  N    -270.12226634227  2.8E-06  8.6E-06  1.6E-04
etot    9  N  Y  0  N    -270.12226775499  1.4E-06  6.1E-06  1.4E-04
etot   10  N  Y  0  N    -270.12226849863  7.4E-07  4.4E-06  1.0E-04
etot   11  N  N  0  N    -270.12226890679  4.1E-07  0.0E+00  0.0E+00
scf (DFT) done.
cutabab2 (abab integrals) done.
der1a (1-e 1st deriv.) done.
der1b (2-e 1st deriv.) done.
  Geometry optimization step  13
  Total energy:      -270.12817259006 hartrees
  energy change:          -6.9080E-04 .  (  5.0000E-05 )
  gradient maximum:        4.8653E-03 .  (  4.5000E-04 )
  gradient rms:            1.4504E-03 .  (  3.0000E-04 )
  displacement maximum:    4.3796E-02 .  (  1.8000E-03 )
  displacement rms:        1.0609E-02 .  (  1.2000E-03 )
  
  predicted energy change: -1.6231E-04
  step size:     0.06793
  step size w/ dynamic constraints:  0.06793
  trust radius:  0.30000
---------------- geometry iteration  13 complete ----------------
geopt (optimize geometry) done.
onee (1-electron integrals) done.
probe (project orbitals) done.
grid (grid generation) done.
  
       i  u  d  i  g
       t  p  i  c  r                                 RMS    maximum
       e  d  i  u  i                       energy  density   DIIS  
       r  t  s  t  d       total energy    change  change    error 
  
etot    1  N  N  0  N    -270.12205214086           1.1E-04  2.3E-03
etot    2  Y  Y  0  N    -270.12230298295  2.5E-04  4.6E-05  8.8E-04
etot    3  N  Y  0  N    -270.12235049248  4.8E-05  2.7E-05  4.4E-04
etot    4  N  Y  0  N    -270.12236546848  1.5E-05  1.6E-05  2.3E-04
etot    5  N  Y  0  N    -270.12237044163  5.0E-06  9.8E-06  1.3E-04
etot    6  N  Y  0  N    -270.12237229779  1.9E-06  6.2E-06  8.8E-05
etot    7  N  Y  0  N    -270.12237306225  7.6E-07  4.0E-06  5.9E-05
etot    8  N  N  0  N    -270.12237339648  3.3E-07  0.0E+00  0.0E+00
scf (DFT) done.
cutabab2 (abab integrals) done.
der1a (1-e 1st deriv.) done.
der1b (2-e 1st deriv.) done.
  Geometry optimization step  14
  Total energy:      -270.12826287019 hartrees
  energy change:          -9.0280E-05 .  (  5.0000E-05 )
  gradient maximum:        4.8289E-03 .  (  4.5000E-04 )
  gradient rms:            1.2907E-03 .  (  3.0000E-04 )
  displacement maximum:    2.2167E-02 .  (  1.8000E-03 )
  displacement rms:        7.3272E-03 .  (  1.2000E-03 )
  
  predicted energy change: -9.7409E-05
  step size:     0.04692
  step size w/ dynamic constraints:  0.04692
  trust radius:  0.30000
---------------- geometry iteration  14 complete ----------------
geopt (optimize geometry) done.
onee (1-electron integrals) done.
probe (project orbitals) done.
grid (grid generation) done.
  
       i  u  d  i  g
       t  p  i  c  r                                 RMS    maximum
       e  d  i  u  i                       energy  density   DIIS  
       r  t  s  t  d       total energy    change  change    error 
  
etot    1  N  N  0  N    -270.12221781871           9.2E-05  1.5E-03
etot    2  Y  Y  0  N    -270.12240769008  1.9E-04  3.7E-05  4.8E-04
etot    3  N  Y  0  N    -270.12243958678  3.2E-05  2.1E-05  2.4E-04
etot    4  N  Y  0  N    -270.12244890544  9.3E-06  1.3E-05  1.6E-04
etot    5  N  Y  0  N    -270.12245171598  2.8E-06  7.8E-06  9.3E-05
etot    6  N  Y  0  N    -270.12245274048  1.0E-06  5.0E-06  6.3E-05
etot    7  N  N  0  N    -270.12245314573  4.1E-07  0.0E+00  0.0E+00
scf (DFT) done.
cutabab2 (abab integrals) done.
der1a (1-e 1st deriv.) done.
der1b (2-e 1st deriv.) done.
  Geometry optimization step  15
  Total energy:      -270.12835440394 hartrees
  energy change:          -9.1534E-05 .  (  5.0000E-05 )
  gradient maximum:        9.7834E-04 .  (  4.5000E-04 )
  gradient rms:            3.1690E-04 .  (  3.0000E-04 )
  displacement maximum:    1.5670E-02 .  (  1.8000E-03 )
  displacement rms:        4.9053E-03 .  (  1.2000E-03 )
  
  predicted energy change: -1.5925E-05
  step size:     0.03141
  step size w/ dynamic constraints:  0.03141
  trust radius:  0.30000
---------------- geometry iteration  15 complete ----------------
geopt (optimize geometry) done.
onee (1-electron integrals) done.
probe (project orbitals) done.
grid (grid generation) done.
  
       i  u  d  i  g
       t  p  i  c  r                                 RMS    maximum
       e  d  i  u  i                       energy  density   DIIS  
       r  t  s  t  d       total energy    change  change    error 
  
etot    1  N  N  0  N    -270.12239894187           4.8E-05  1.0E-03
etot    2  N  Y  0  N    -270.12245537977  5.6E-05  2.0E-05  4.2E-04
etot    3  N  Y  0  N    -270.12246482573  9.4E-06  1.2E-05  2.0E-04
etot    4  N  Y  0  N    -270.12246729915  2.5E-06  6.6E-06  1.0E-04
etot    5  N  Y  0  N    -270.12246812160  8.2E-07  3.8E-06  6.2E-05
etot    6  N  N  0  N    -270.12246839342  2.7E-07  0.0E+00  0.0E+00
scf (DFT) done.
cutabab2 (abab integrals) done.
der1a (1-e 1st deriv.) done.
der1b (2-e 1st deriv.) done.
  Geometry optimization step  16
  Total energy:      -270.12836563437 hartrees
  energy change:          -1.1230E-05 *  (  5.0000E-05 )
  gradient maximum:        5.3822E-04 .  (  4.5000E-04 )
  gradient rms:            2.1338E-04 *  (  3.0000E-04 )
  displacement maximum:    1.1137E-02 .  (  1.8000E-03 )
  displacement rms:        2.8893E-03 .  (  1.2000E-03 )
  
  predicted energy change: -5.5994E-06
  step size:     0.01850
  step size w/ dynamic constraints:  0.01850
  trust radius:  0.30000
---------------- geometry iteration  16 complete ----------------
geopt (optimize geometry) done.
onee (1-electron integrals) done.
probe (project orbitals) done.
grid (grid generation) done.
  
       i  u  d  i  g
       t  p  i  c  r                                 RMS    maximum
       e  d  i  u  i                       energy  density   DIIS  
       r  t  s  t  d       total energy    change  change    error 
  
etot    1  N  N  0  N    -270.12244268136           3.1E-05  4.9E-04
etot    2  N  Y  0  N    -270.12246602413  2.3E-05  1.2E-05  1.8E-04
etot    3  N  Y  0  N    -270.12246940916  3.4E-06  7.1E-06  8.0E-05
etot    4  N  Y  0  N    -270.12247019593  7.9E-07  4.1E-06  5.0E-05
etot    5  N  N  0  N    -270.12247044670  2.5E-07  0.0E+00  0.0E+00
scf (DFT) done.
cutabab2 (abab integrals) done.
der1a (1-e 1st deriv.) done.
der1b (2-e 1st deriv.) done.
  Geometry optimization step  17
  Total energy:      -270.12836733272 hartrees
  energy change:          -1.6983E-06 #  (  5.0000E-05 )
  gradient maximum:        4.9709E-04 .  (  4.5000E-04 )
  gradient rms:            1.7193E-04 *  (  3.0000E-04 )
  displacement maximum:    3.6156E-03 .  (  1.8000E-03 )
  displacement rms:        1.0117E-03 *  (  1.2000E-03 )
  
  predicted energy change: -1.7392E-06
  step size:     0.00648
  step size w/ dynamic constraints:  0.00648
  trust radius:  0.30000
---------------- geometry iteration  17 complete ----------------
geopt (optimize geometry) done.
onee (1-electron integrals) done.
probe (project orbitals) done.
grid (grid generation) done.
  
       i  u  d  i  g
       t  p  i  c  r                                 RMS    maximum
       e  d  i  u  i                       energy  density   DIIS  
       r  t  s  t  d       total energy    change  change    error 
  
etot    1  N  N  0  N    -270.12246400881           1.5E-05  2.9E-04
etot    2  N  Y  0  N    -270.12246964256  5.6E-06  6.0E-06  8.3E-05
etot    3  N  Y  0  N    -270.12247041411  7.7E-07  3.2E-06  3.5E-05
etot    4  N  N  0  N    -270.12247059494  1.8E-07  0.0E+00  0.0E+00
scf (DFT) done.
cutabab2 (abab integrals) done.
der1a (1-e 1st deriv.) done.
der1b (2-e 1st deriv.) done.
  Geometry optimization step  18
  Total energy:      -270.12836797783 hartrees
  energy change:          -6.4512E-07 #  (  5.0000E-05 )
  gradient maximum:        6.2351E-04 .  (  4.5000E-04 )
  gradient rms:            1.7619E-04 *  (  3.0000E-04 )
  displacement maximum:    1.6789E-03 *  (  1.8000E-03 )
  displacement rms:        5.1757E-04 *  (  1.2000E-03 )
  
  predicted energy change: -7.6747E-07
  step size:     0.00331
  step size w/ dynamic constraints:  0.00331
  trust radius:  0.30000
------------- final geometry iteration  18 complete -------------
geopt (optimize geometry) done.
cutabab2 (abab integrals) done.
der2a (1-e JK-1st deriv.) done.
der2b (2-e JK-1st deriv.) done.
der2nda (1-e 2nd deriv.) done.
der2ndb (2-e 2nd deriv.) done.
cphfa (gradient of wave function) done.
freq (vib. frequencies) done.
Job ts completed on hpc-25-04.cm.cluster at Thu Apr 20 10:58:54 2023
Timer (jaguar_backend.py) : 1179.57 secs (0 hrs, 19 mins, 39 secs)
Finished:   Thu Apr 20 10:58:54 2023
