Job ts started on hpc-25-04.cm.cluster at Thu Apr 20 10:39:15 2023
jobid: hpc-25-04-0-644178bf

  +--------------------------------------------------------------------+
  |  Jaguar version 11.7, release 121                                  |
  |                                                                    |
  |  Copyright Schrodinger, Inc.                                       |
  |  All Rights Reserved.                                              |
  |                                                                    |
  |  The following have contributed to Jaguar (listed alphabetically): |
  |  Mike Beachy, Art Bochevarov, Dale Braden, Yixiang Cao,            |
  |  Alan Chien, Chris Cortis, Rich Friesner, Bill Goddard,            |
  |  Hod Greeley, Tom Hughes, Leif Jacobson, Jean-Marc Langlois,       |
  |  Daniel Levine, Daniel Mainz, Rob Murphy, Dean Philipp,            |
  |  Tom Pollard, Murco Ringnalda, Mark Watson, Haoyu Yu.              |
  |                                                                    |
  |  Use of this program should be acknowledged in publications as:    |
  |                                                                    |
  |  Jaguar, version 11.7, Schrodinger, Inc., New York, NY, 2022.      |
  |                                                                    |
  |  A. D. Bochevarov, E. Harder, T. F. Hughes, J. R. Greenwood,       |
  |  D. A. Braden, D. M. Philipp, D. Rinaldo, M. D. Halls,             |
  |  J. Zhang, R. A. Friesner, "Jaguar: A High-Performance Quantum     |
  |  Chemistry Software Program with Strengths in Life and Materials   |
  |  Sciences", Int. J. Quantum Chem., 2013, 113(18), 2110-2142.       |
  +--------------------------------------------------------------------+
  
  start of program pre
  
  Job name: ts
  Executables used: /central/groups/wag/programs/Schrodinger_2022_3/jaguar-v11.7/bin/Linux-x86_64
  Temporary files : /central/scratch/musgrave/pkozlows/ts
  Maestro file (input):  ts.mae
  Maestro file (output): ts.01.mae
  
 Contents of input file: &gen section only
 ----------------Contents start----------------
&gen
nops=1
nofail=1
basis=6-31G**
igeopt=1
dftname=PBE-D3
ifreq=1
&
 -----------------Contents end-----------------
 
  basis set:               6-31g**                         
  net molecular charge:    0
  multiplicity:            1
  
  number of basis functions....          130

 --------------------------------------
   Number of active coords =   0
 --------------------------------------
 --------------------------------------

  
 Input geometry:
                                   angstroms
  atom               x                 y                 z
  O1           -2.8019937808      0.7780642223     -0.3642401700 
  C3           -1.9235402315      1.6069275276     -0.5607985573 
  C5           -0.7297313082      0.8622048298      0.0168241250 
  C7           -0.8497857440     -1.4115053061      0.3421380508 
  H5            0.1487401382      1.0814612649     -0.6253439759 
  H6           -0.5009897199      1.3307346620      0.9994412265 
  C10          -2.2092512176     -2.0357994572      0.1023784557 
  H8           -0.1117632142     -1.9176688296     -0.3167507118 
  H9           -0.5353396763     -1.6509143097      1.3810062845 
  C13          -3.1557873049     -1.0957418252      0.0183254346 
  H11          -2.1543674234      2.5965022908     -1.0682457340 
  H12          -3.4638309804     -0.6740523380     -0.9420830510 
  H13          -3.6583549784     -0.7116472897      0.9055418272 
  H14          -2.2366321023     -3.1254517779      0.0261838633 
   
  principal moments of inertia:
        amu*angstrom^2:                87.17935               173.45261               248.66742
                g*cm^2:          1.44764694E-38          2.88024794E-38          4.12921917E-38
   
  rotational constants:
               cm^(-1):      0.19336723      0.09718868      0.06779187
                   GHz:      5.79700378      2.91364320      2.03234909
   
  Molecular weight:      84.06 amu
   
  Stoichiometry: C5H8O
  Molecular Point Group: C1      
  Point Group used: C1 (symmetry turned off)
  
  detected            2  molecular fragments

 --------------------------------------
   Number of active coords =   0
 --------------------------------------
 --------------------------------------

 
Number of optimization coordinates:    40
Number of independent coordinates:     39
Number of non-redundant coordinates:   36
Number of frozen coordinates:           1
Number of harmonic constraints:         0
 
Number of geometric degrees of freedom:    35
Maximum geometric degrees of freedom:      36
 " " " " " excluding dummy atoms:          36
 
  nuclear repulsion energy.......           222.328677873 hartrees
 
 Non-default options chosen:
   Running in no-fail mode
   SCF calculation type: DFT(pbe-d3)                 
   DFT=PBE(X+LC)+PW91 (PBE-D3)
   Geometry will be optimized in redundant internal coordinates
      user-selected coordinates frozen
      user-selected coordinates adjusted to specified values
   Vibrational frequencies and related properties will be computed
      from analytic second derivatives
   IR intensities will be computed
   Thermochemical properties will be computed
   Scaling standard convergence criteria by a factor of   1.00
   Fully analytic SCF calculation: pseudospectral method not used
  
 Temporary integer options set:
     73=  2
  
  end of program pre
   
 Time(pre)  user:        3.5  user+sys:        3.5  wallclock:        4.0
  
  start of program onee
  
  smallest eigenvalue of S:    3.471E-03
  number of canonical orbitals.....          130
  end of program onee
   
 Time(onee)  user:        0.3  user+sys:        0.3  wallclock:        0.4
  
  start of program hfig
  
  initial wavefunction generated automatically from atomic wavefunctions
 
  Irreducible     Total no   No of occupied orbitals 
  representation  orbitals   Shell_1  Shell_2    ...
  No Symm          130         23
  ------------------------
  Orbital occupation/shell    1.000
 
  end of program hfig
   
 Time(hfig)  user:        0.4  user+sys:        0.4  wallclock:        0.5
  
  start of program probe
  
  end of program probe
   
 Time(probe)  user:        0.3  user+sys:        0.3  wallclock:        0.4
  
  start of program grid
  
   grid     grid set  grid #  grid sym
  ------    --------  ------  --------
  coarse        0        0        1
  medium        0        0        1
  fine          0        0        1
  ultrafine     0        0        1
  charge        0        0        1
  gradient      0        0        1
  density       0        0        1
  DFT-fine    -11        1        1
  DFT-med.    -10        2        1
  DFT-grad    -12        3        1
  DFT-der2     -8        4        1
  DFT-cphf     -9        5        1
  LMP2-enrg     0        0        1
  LMP2-grad     0        0        1
  DFT-cphf2   -15        6        1
  PBF-dens      0        0        1
  plotting      0        0        1
  Rel-grad    -17        0        1
  
  number of gridpoints: 
     atom        O1       C3       C5       C7       H5       H6      C10
  grid # 1     4304     4304     4304     4304     4304     4304     4304
  grid # 2     1192     1192     1192     1192     1192     1192     1192
  grid # 3     5226     5226     5226     5226     5226     5226     5226
  grid # 4    23504    12650    12650    12650    13718    13718    12650
  grid # 5      714      688      688      688      744      744      688
  grid # 6      360      358      358      358      382      382      358
   
  number of gridpoints: 
     atom        H8       H9      C13      H11      H12      H13      H14
  grid # 1     4304     4304     4304     4304     4304     4304     4304
  grid # 2     1192     1192     1192     1192     1192     1192     1192
  grid # 3     5226     5226     5226     5226     5226     5226     5226
  grid # 4    13718    13718    12650    13718    13718    13718    13718
  grid # 5      744      744      688      744      744      744      744
  grid # 6      382      382      358      382      382      382      382
   
  number of gridpoints: 
     atom     total
  grid # 1    60256
  grid # 2    16688
  grid # 3    73164
  grid # 4   196498
  grid # 5    10106
  grid # 6     5206
   
  end of program grid
   
 Time(grid)  user:        1.6  user+sys:        1.6  wallclock:        1.9
  
  start of program scf
  
 number of electrons..........         46
 number of alpha electrons....         23
 number of beta electrons.....         23
 number of orbitals, total....        130
 number of doubly-occ'd orbs..         23
 number of open shell orbs....          0
 number of occupied orbitals..         23
 number of virtual orbitals...        107
 number of hamiltonians.......          1
 number of shells.............          1
 SCF type: DFT=PBE(X+LC)+PW91 (PBE-D3)
 Energy computed with NOPS on.
 Convergence Criterion:
    Energy (econv):       1.00E-05
    RMS density (dconv):  5.00E-06
  
       i  u  d  i  g                   
       t  p  i  c  r                                 RMS    maximum
       e  d  i  u  i                       energy  density   DIIS  
       r  t  s  t  d       total energy    change  change    error 
  
etot    1  N  N  0  N    -268.81568911779           1.4E-02  1.2E-01
etot    2  Y  Y  0  N    -267.73203841749 -1.1E+00  1.5E-02  1.6E-01
etot    3  Y  Y  0  N    -268.00369462622  2.7E-01  1.3E-02  1.3E-01
etot    4  N  Y  0  N    -269.05476891243  1.1E+00  9.6E-03  1.2E-01
etot    5  Y  Y  0  N    -269.74245818377  6.9E-01  7.5E-03  5.1E-02
etot    6  N  Y  0  N    -269.72292091345 -2.0E-02  8.4E-03  4.3E-02
etot    7  N  Y  0  N    -269.73272497584  9.8E-03  7.6E-03  3.3E-02
etot    8  Y  Y  0  N    -269.83828423660  1.1E-01  1.7E-03  2.1E-02
etot    9  N  Y  0  N    -269.86561286024  2.7E-02  6.4E-04  1.0E-02
etot   10  Y  Y  0  N    -269.87215279047  6.5E-03  9.8E-03  7.0E-03
etot   11  N  Y  0  N    -269.55872003661 -3.1E-01  9.4E-03  5.1E-02
etot   12  N  Y  0  N    -269.87360225691  3.1E-01  8.7E-03  4.3E-03
etot   13  Y  Y  0  N    -269.69248630266 -1.8E-01  2.6E-03  4.9E-02
etot   14  N  Y  0  N    -269.80062334442  1.1E-01  6.4E-03  2.8E-02
etot   15  Y  Y  0  N    -269.87520889074  7.5E-02  3.2E-04  1.9E-03
etot   16  N  Y  0  N    -269.87537622085  1.7E-04  1.2E-03  1.2E-03
etot   17  Y  Y  0  N    -269.87504513011 -3.3E-04  1.0E-02  2.2E-03
etot   18  N  Y  0  N    -269.53034136167 -3.4E-01  4.1E-02  5.3E-02
etot   19  N  Y  0  N    -262.60562208022 -6.9E+00  3.8E-02  2.9E-01
etot   20  N  Y  0  N    -268.80309307971  6.2E+00  6.1E-03  1.3E-01
etot   21  Y  Y  0  N    -269.66124191214  8.6E-01  6.3E-03  6.0E-02
etot   22  N  Y  0  N    -269.73987382718  7.9E-02  5.2E-03  4.0E-02
etot   23  Y  Y  0  N    -269.83928037623  9.9E-02  8.3E-03  1.9E-02
etot   24  N  Y  0  N    -269.75316359772 -8.6E-02  7.4E-03  4.0E-02
etot   25  N  Y  0  N    -269.87247552808  1.2E-01  5.5E-03  4.9E-03
etot   26  Y  Y  0  N    -269.83933216229 -3.3E-02  5.6E-03  1.7E-02
etot   27  N  Y  0  N    -269.87388697062  3.5E-02  1.4E-03  4.8E-03
etot   28  Y  Y  0  N    -269.87480872641  9.2E-04  5.2E-03  2.6E-03
etot   29  N  Y  0  N    -269.84276503567 -3.2E-02  5.2E-03  1.6E-02
etot   30  N  Y  0  N    -269.87521833416  3.2E-02  6.1E-03  1.7E-03
etot   31  Y  Y  0  N    -269.81886307254 -5.6E-02  2.3E-03  2.3E-02
etot   32  N  Y  0  N    -269.74104962061 -7.8E-02  1.3E-02  4.1E-02
etot   33  N  Y  0  N    -267.65420071352 -2.1E+00  1.1E-02  1.4E-01
etot   34  N  Y  0  N    -269.79499448182  2.1E+00  3.7E-03  3.3E-02
etot   35  Y  Y  0  N    -269.81190256993  1.7E-02  9.1E-03  2.8E-02
etot   36  N  Y  0  N    -269.65263857283 -1.6E-01  8.2E-03  5.1E-02
etot   37  N  Y  0  N    -269.86817118408  2.2E-01  3.8E-03  9.6E-03
etot   38  Y  Y  0  N    -269.85845268993 -9.7E-03  4.4E-03  1.2E-02
etot   39  N  Y  0  N    -269.87174095186  1.3E-02  5.8E-04  5.2E-03
etot   40  Y  Y  0  N    -269.87434667328  2.6E-03  3.1E-04  3.6E-03
etot   41  Y  Y  0  N    -269.87493645280  5.9E-04  4.9E-04  2.7E-03
etot   42  N  Y  0  N    -269.87553003530  5.9E-04  1.0E-02  7.9E-04
etot   43  Y  Y  0  N    -269.49902867597 -3.8E-01  9.4E-06  5.6E-02
etot   44  N  Y  0  N    -269.49902647669 -2.2E-06  4.4E-04  5.6E-02
etot   45  Y  Y  0  N    -269.49161050918 -7.4E-03  5.4E-05  5.7E-02
etot   46  N  Y  0  N    -269.48935457041 -2.3E-03  4.3E-04  5.7E-02
etot   47  Y  Y  0  N    -269.50143186098  1.2E-02  8.2E-04  5.6E-02
 No-fail mode: restarting with smaller basis set
etot    1  N  N  0  N    -268.81568911779           1.4E-02  1.2E-01
etot    2  Y  Y  0  N    -267.76290584226 -1.1E+00  1.4E-02  1.6E-01
etot    3  Y  Y  0  N    -268.01612854491  2.5E-01  1.2E-02  1.3E-01
etot    4  N  Y  0  N    -269.04074356237  1.0E+00  8.8E-03  1.2E-01
etot    5  Y  Y  0  N    -269.74072436837  7.0E-01  6.7E-03  5.1E-02
etot    6  N  Y  0  N    -269.72188687661 -1.9E-02  8.0E-03  4.4E-02
etot    7  N  Y  0  N    -269.71870853366 -3.2E-03  7.1E-03  3.4E-02
etot    8  Y  Y  0  N    -269.83327590090  1.1E-01  1.5E-03  2.0E-02
etot    9  N  Y  0  N    -269.85783345882  2.5E-02  6.7E-04  9.5E-03
etot   10  Y  Y  0  N    -269.86279183279  5.0E-03  9.6E-03  7.2E-03
etot   11  N  Y  0  N    -269.56648972655 -3.0E-01  8.2E-03  5.0E-02
etot   12  N  Y  0  N    -269.85848160559  2.9E-01  7.6E-03  8.1E-03
etot   13  Y  Y  0  N    -269.81848490244 -4.0E-02  4.7E-03  2.0E-02
etot   14  N  Y  0  N    -269.86505041093  4.7E-02  9.6E-04  3.2E-03
etot   15  Y  Y  0  N    -269.86618310687  1.1E-03  3.9E-03  1.3E-03
etot   16  N  Y  0  N    -269.84914107179 -1.7E-02  6.5E-03  1.0E-02
etot   17  N  Y  0  N    -269.85615757733  7.0E-03  1.1E-03  9.1E-03
etot   18  Y  Y  0  N    -269.84463212082 -1.2E-02  4.0E-03  1.3E-02
etot   19  N  Y  0  N    -269.74300723188 -1.0E-01  5.8E-03  3.4E-02
etot   20  N  Y  0  N    -269.86187784259  1.2E-01  3.3E-04  6.2E-03
etot   21  Y  Y  0  N    -269.86321167632  1.3E-03  2.4E-03  5.2E-03
etot   22  N  Y  0  N    -269.84541793160 -1.8E-02  3.5E-05  1.3E-02
etot   23  N  Y  0  N    -269.84497960320 -4.4E-04  3.2E-03  1.3E-02
etot   24  Y  Y  0  N    -269.86525586173  2.0E-02  3.6E-04  2.8E-03
etot   25  N  Y  0  N    -269.86588817285  6.3E-04  3.3E-05  1.7E-03
etot   26  N  Y  0  N    -269.86584569488 -4.2E-05  8.8E-03  1.7E-03
etot   27  Y  Y  0  N    -269.65998857686 -2.1E-01  1.3E-02  5.1E-02
etot   28  N  Y  0  N    -267.11614906093 -2.5E+00  1.1E-02  1.4E-01
etot   29  N  Y  0  N    -269.74189062604  2.6E+00  6.6E-03  3.3E-02
etot   30  Y  Y  0  N    -269.74983698752  7.9E-03  7.6E-03  3.7E-02
etot   31  N  Y  0  N    -269.76156962154  1.2E-02  3.4E-03  3.2E-02
etot   32  Y  Y  0  N    -269.85974323389  9.8E-02  7.0E-03  8.7E-03
etot   33  N  Y  0  N    -269.77102083153 -8.9E-02  7.0E-03  3.0E-02
etot   34  N  Y  0  N    -269.86297812936  9.2E-02  3.4E-04  6.2E-03
etot   35  Y  Y  0  N    -269.86489979720  1.9E-03  1.0E-03  3.9E-03
etot   36  N  Y  0  N    -269.86472897162 -1.7E-04  3.4E-03  3.6E-03
etot   37  Y  Y  0  N    -269.86119616381 -3.5E-03  9.8E-03  6.6E-03
etot   38  N  Y  0  N    -269.61079668447 -2.5E-01  1.5E-02  5.3E-02
etot   39  N  Y  0  N    -266.72388044713 -2.9E+00  1.2E-02  1.5E-01
etot   40  N  Y  0  N    -269.68950930156  3.0E+00  7.9E-03  4.8E-02
etot   41  Y  Y  0  N    -269.69960095307  1.0E-02  8.2E-03  4.4E-02
etot   42  N  Y  0  N    -269.75507539794  5.5E-02  3.1E-03  3.2E-02
etot   43  Y  Y  0  N    -269.85486582206  1.0E-01  9.3E-03  1.2E-02
etot   44  N  Y  0  N    -269.60153712636 -2.5E-01  7.6E-03  5.0E-02
etot   45  N  Y  0  N    -269.85562051499  2.5E-01  7.2E-03  9.2E-03
etot   46  Y  Y  0  N    -269.83558774118 -2.0E-02  4.4E-03  1.4E-02
etot   47  N  Y  0  N    -269.86483783048  2.9E-02  1.4E-03  3.6E-03
 No-fail mode: restarting with vshift=1.0
etot    1  N  N  0  N    -268.81568911779           7.5E-03  1.2E-01
etot    2  Y  Y  0  N    -269.57104119999  7.6E-01  3.1E-03  4.2E-02
etot    3  Y  Y  0  N    -269.69014517771  1.2E-01  1.8E-03  4.0E-02
etot    4  N  Y  0  N    -269.73619936216  4.6E-02  9.8E-04  1.4E-02
etot    5  Y  Y  0  N    -269.74936170712  1.3E-02  7.6E-04  8.9E-03
etot    6  N  Y  0  N    -269.75647115926  7.1E-03  7.6E-04  1.1E-02
etot    7  Y  Y  0  N    -269.76391590795  7.4E-03  9.2E-04  1.2E-02
etot    8  N  Y  0  N    -269.77227518871  8.4E-03  1.1E-03  1.2E-02
etot    9  Y  Y  0  N    -269.78021574046  7.9E-03  1.0E-03  1.4E-02
etot   10  N  Y  0  N    -269.79100146672  1.1E-02  8.2E-04  1.3E-02
etot   11  Y  Y  0  N    -269.80131913975  1.0E-02  7.7E-04  1.2E-02
etot   12  N  Y  0  N    -269.80873218894  7.4E-03  6.1E-04  1.0E-02
etot   13  Y  Y  0  N    -269.81240608018  3.7E-03  4.9E-04  1.1E-02
etot   14  Y  Y  0  N    -269.81511500004  2.7E-03  4.1E-04  1.1E-02
etot   15  N  Y  0  N    -269.81475196483 -3.6E-04  3.3E-04  1.1E-02
etot   16  Y  Y  0  N    -269.81571306835  9.6E-04  3.0E-04  1.1E-02
etot   17  Y  Y  0  N    -269.81777422883  2.1E-03  2.7E-04  1.1E-02
etot   18  Y  Y  0  N    -269.81857993119  8.1E-04  2.6E-04  1.1E-02
etot   19  Y  Y  0  N    -269.82017954474  1.6E-03  2.8E-04  1.1E-02
etot   20  N  Y  0  N    -269.82341816784  3.2E-03  2.4E-04  9.6E-03
etot   21  Y  Y  0  N    -269.82253832195 -8.8E-04  1.0E-03  1.1E-02
etot   22  N  Y  0  N    -269.82908307438  6.5E-03  9.5E-04  9.8E-03
etot   23  Y  Y  0  N    -269.81044386687 -1.9E-02  1.7E-03  2.4E-02
etot   24  N  Y  0  N    -269.69767832884 -1.1E-01  3.9E-03  5.4E-02
etot   25  N  Y  0  N    -269.75500389595  5.7E-02  1.0E-03  3.9E-02
etot   26  Y  Y  0  N    -269.81877215977  6.4E-02  4.8E-04  2.0E-02
etot   27  N  Y  0  N    -269.83522618164  1.6E-02  3.6E-04  9.8E-03
etot   28  Y  Y  0  N    -269.84047055944  5.2E-03  2.7E-04  5.2E-03
etot   29  N  Y  0  N    -269.84219588821  1.7E-03  2.3E-04  4.2E-03
etot   30  Y  Y  0  N    -269.84314281563  9.5E-04  2.1E-04  3.7E-03
etot   31  Y  Y  0  N    -269.84383388676  6.9E-04  1.9E-04  3.4E-03
etot   32  Y  Y  0  N    -269.84442113074  5.9E-04  1.7E-04  3.3E-03
etot   33  Y  Y  0  N    -269.84469442311  2.7E-04  1.5E-04  3.0E-03
etot   34  N  Y  0  N    -269.84505324020  3.6E-04  1.4E-04  2.9E-03
etot   35  Y  Y  0  N    -269.84523366230  1.8E-04  1.3E-04  3.4E-03
etot   36  Y  Y  0  N    -269.84565032696  4.2E-04  1.2E-04  3.1E-03
etot   37  Y  Y  0  N    -269.84575093536  1.0E-04  3.1E-04  3.7E-03
etot   38  N  Y  0  N    -269.84649990074  7.5E-04  1.8E-04  2.8E-03
etot   39  Y  Y  0  N    -269.84699491875  5.0E-04  2.8E-04  1.8E-03
etot   40  Y  Y  0  N    -269.84655225250 -4.4E-04  3.6E-04  4.7E-03
etot   41  N  Y  0  N    -269.84220391197 -4.3E-03  7.3E-04  1.2E-02
etot   42  Y  Y  0  N    -269.84494051463  2.7E-03  2.2E-04  7.8E-03
etot   43  Y  Y  0  N    -269.84758137132  2.6E-03  1.3E-04  3.9E-03
etot   44  N  Y  0  N    -269.84823511716  6.5E-04  1.1E-04  1.7E-03
etot   45  Y  Y  0  N    -269.84848800386  2.5E-04  9.6E-05  1.6E-03
etot   46  Y  Y  0  N    -269.84864001316  1.5E-04  9.2E-05  1.4E-03
etot   47  Y  Y  0  N    -269.84877796197  1.4E-04  8.4E-05  1.4E-03
 
 No-fail mode: increasing maximum number of SCF iterations by 99
 
etot   48  Y  Y  0  N    -269.84884725041  6.9E-05  7.5E-05  1.2E-03
etot   49  N  Y  0  N    -269.84892944418  8.2E-05  7.1E-05  1.2E-03
etot   50  Y  Y  0  N    -269.84893406152  4.6E-06  6.3E-05  1.7E-03
etot   51  Y  Y  0  N    -269.84897846981  4.4E-05  5.8E-05  1.9E-03
etot   52  Y  Y  0  N    -269.84902270050  4.4E-05  5.6E-05  2.1E-03
etot   53  Y  Y  0  N    -269.84909965213  7.7E-05  5.5E-05  2.0E-03
etot   54  N  Y  0  N    -269.84918706254  8.7E-05  5.3E-05  1.9E-03
etot   55  Y  Y  0  N    -269.84921594047  2.9E-05  5.8E-05  2.1E-03
etot   56  Y  Y  0  N    -269.84935243967  1.4E-04  6.0E-05  1.7E-03
etot   57  Y  Y  0  N    -269.84947881856  1.3E-04  5.8E-05  1.3E-03
etot   58  Y  Y  0  N    -269.84955767043  7.9E-05  5.5E-05  1.2E-03
etot   59  N  Y  0  N    -269.84959062924  3.3E-05  5.2E-05  1.4E-03
etot   60  Y  Y  0  N    -269.84959128132  6.5E-07  5.0E-05  1.7E-03
etot   61  Y  Y  0  N    -269.84965008576  5.9E-05  5.2E-05  1.7E-03
etot   62  Y  Y  0  N    -269.84974078790  9.1E-05  5.0E-05  1.6E-03
etot   63  N  Y  0  N    -269.84976600932  2.5E-05  4.8E-05  1.7E-03
etot   64  N  Y  0  N    -269.84980577076  4.0E-05  6.2E-05  1.8E-03
etot   65  Y  Y  0  N    -269.84996655235  1.6E-04  1.2E-04  1.2E-03
etot   66  Y  Y  0  N    -269.85005564716  8.9E-05  8.5E-05  9.3E-04
etot   67  Y  Y  0  N    -269.85017230934  1.2E-04  6.2E-05  8.9E-04
etot   68  Y  Y  0  N    -269.85024660040  7.4E-05  6.1E-05  8.8E-04
etot   69  N  Y  0  N    -269.85028702131  4.0E-05  5.7E-05  9.3E-04
etot   70  Y  Y  0  N    -269.85032457076  3.8E-05  5.9E-05  9.9E-04
etot   71  Y  Y  0  N    -269.85040725526  8.3E-05  6.9E-05  9.6E-04
etot   72  Y  Y  0  N    -269.85051777429  1.1E-04  6.7E-05  9.2E-04
etot   73  Y  Y  0  N    -269.85059978759  8.2E-05  7.3E-05  9.2E-04
etot   74  N  Y  0  N    -269.85068373644  8.4E-05  7.4E-05  9.1E-04
etot   75  Y  Y  0  N    -269.85076442146  8.1E-05  7.8E-05  9.3E-04
etot   76  Y  Y  0  N    -269.85084096671  7.7E-05  8.6E-05  9.4E-04
etot   77  Y  Y  0  N    -269.85089073492  5.0E-05  9.4E-05  1.0E-03
etot   78  Y  Y  0  N    -269.85089439746  3.7E-06  1.6E-04  1.6E-03
etot   79  N  Y  0  N    -269.85109927523  2.0E-04  8.4E-05  1.2E-03
etot   80  Y  Y  0  N    -269.85126599008  1.7E-04  8.0E-05  1.2E-03
etot   81  Y  Y  0  N    -269.85138620555  1.2E-04  8.2E-05  1.2E-03
etot   82  Y  Y  0  N    -269.85150294362  1.2E-04  9.2E-05  1.2E-03
etot   83  Y  Y  0  N    -269.85160994241  1.1E-04  9.4E-05  1.2E-03
etot   84  N  Y  0  N    -269.85171670652  1.1E-04  9.8E-05  1.2E-03
etot   85  Y  Y  0  N    -269.85182807599  1.1E-04  1.1E-04  1.2E-03
etot   86  Y  Y  0  N    -269.85190086717  7.3E-05  1.1E-04  1.5E-03
etot   87  Y  Y  0  N    -269.85198118442  8.0E-05  2.0E-04  1.9E-03
etot   88  Y  Y  0  N    -269.85229185792  3.1E-04  1.1E-04  1.6E-03
etot   89  N  Y  0  N    -269.85258685018  2.9E-04  1.1E-04  1.6E-03
etot   90  Y  Y  0  N    -269.85281037916  2.2E-04  1.1E-04  1.6E-03
etot   91  Y  Y  0  N    -269.85302820569  2.2E-04  1.2E-04  1.7E-03
etot   92  Y  Y  0  N    -269.85324881977  2.2E-04  1.2E-04  1.7E-03
etot   93  Y  Y  0  N    -269.85349613482  2.5E-04  1.2E-04  1.8E-03
etot   94  N  Y  0  N    -269.85376485513  2.7E-04  1.3E-04  1.8E-03
etot   95  Y  Y  0  N    -269.85404713238  2.8E-04  1.3E-04  1.9E-03
etot   96  Y  Y  0  N    -269.85434370386  3.0E-04  1.4E-04  1.9E-03
etot   97  Y  Y  0  N    -269.85466461776  3.2E-04  1.4E-04  2.0E-03
etot   98  Y  Y  0  N    -269.85501576002  3.5E-04  1.4E-04  2.1E-03
etot   99  N  Y  0  N    -269.85538661023  3.7E-04  1.5E-04  2.2E-03
etot  100  Y  Y  0  N    -269.85577196656  3.9E-04  1.6E-04  2.2E-03
etot  101  Y  Y  0  N    -269.85614794747  3.8E-04  1.6E-04  2.4E-03
etot  102  Y  Y  0  N    -269.85661421002  4.7E-04  1.6E-04  2.4E-03
etot  103  Y  Y  0  N    -269.85706828611  4.5E-04  1.6E-04  2.4E-03
etot  104  N  Y  0  N    -269.85753230166  4.6E-04  1.6E-04  2.4E-03
etot  105  Y  Y  0  N    -269.85800957401  4.8E-04  1.7E-04  2.4E-03
etot  106  Y  Y  0  N    -269.85849752097  4.9E-04  1.6E-04  2.5E-03
etot  107  Y  Y  0  N    -269.85898900837  4.9E-04  1.6E-04  2.4E-03
etot  108  Y  Y  0  N    -269.85947651906  4.9E-04  1.6E-04  2.4E-03
etot  109  N  Y  0  N    -269.85995559625  4.8E-04  1.6E-04  2.4E-03
etot  110  Y  Y  0  N    -269.86041838400  4.6E-04  1.5E-04  2.4E-03
etot  111  Y  Y  0  N    -269.86082101492  4.0E-04  1.4E-04  2.3E-03
etot  112  Y  Y  0  N    -269.86118492182  3.6E-04  1.4E-04  2.3E-03
etot  113  Y  Y  0  N    -269.86157684717  3.9E-04  1.8E-04  2.3E-03
etot  114  N  Y  0  N    -269.86204444781  4.7E-04  1.7E-04  2.3E-03
etot  115  Y  Y  0  N    -269.86237092661  3.3E-04  2.5E-04  2.2E-03
etot  116  Y  Y  0  N    -269.86193380203 -4.4E-04  1.5E-04  3.5E-03
etot  117  Y  Y  0  N    -269.86047875662 -1.5E-03  2.3E-04  5.5E-03
etot  118  Y  Y  0  N    -269.86288208849  2.4E-03  1.8E-04  2.0E-03
etot  119  N  Y  0  N    -269.86134645257 -1.5E-03  6.7E-05  4.8E-03
etot  120  Y  Y  0  N    -269.86090987101 -4.4E-04  5.3E-05  5.3E-03
etot  121  Y  Y  0  N    -269.86111304022  2.0E-04  2.1E-04  5.0E-03
etot  122  Y  Y  0  N    -269.86334686296  2.2E-03  1.5E-04  2.0E-03
etot  123  Y  Y  0  N    -269.86390288419  5.6E-04  1.3E-04  2.0E-03
etot  124  N  Y  0  N    -269.86364812073 -2.5E-04  7.5E-05  2.3E-03
etot  125  Y  Y  0  N    -269.86338177989 -2.7E-04  1.1E-04  3.0E-03
etot  126  Y  Y  0  N    -269.86406012313  6.8E-04  7.0E-05  1.6E-03
etot  127  Y  Y  0  N    -269.86396534390 -9.5E-05  6.1E-05  2.1E-03
etot  128  Y  Y  0  N    -269.86409982740  1.3E-04  6.6E-05  2.1E-03
etot  129  N  Y  0  N    -269.86432113049  2.2E-04  5.7E-05  1.8E-03
etot  130  Y  Y  0  N    -269.86430750380 -1.4E-05  5.0E-05  2.2E-03
etot  131  Y  Y  0  N    -269.86424217371 -6.5E-05  4.6E-05  2.5E-03
etot  132  N  Y  0  N    -269.86406542049 -1.8E-04  6.6E-05  3.0E-03
etot  133  Y  Y  0  N    -269.86450611602  4.4E-04  6.9E-05  2.2E-03
etot  134  Y  Y  0  N    -269.86483717893  3.3E-04  5.7E-05  1.6E-03
etot  135  Y  Y  0  N    -269.86462719971 -2.1E-04  5.9E-05  2.4E-03
etot  136  Y  Y  0  N    -269.86489917828  2.7E-04  4.6E-05  1.6E-03
etot  137  N  Y  0  N    -269.86479206769 -1.1E-04  4.2E-05  2.0E-03
etot  138  N  Y  0  N    -269.86489155533  9.9E-05  5.2E-05  1.8E-03
etot  139  Y  Y  0  N    -269.86511110975  2.2E-04  6.3E-05  1.4E-03
etot  140  Y  Y  0  N    -269.86533186650  2.2E-04  5.7E-05  1.1E-03
etot  141  Y  Y  0  N    -269.86544942038  1.2E-04  5.6E-05  9.1E-04
etot  142  Y  Y  0  N    -269.86554522811  9.6E-05  4.8E-05  9.0E-04
etot  143  N  Y  0  N    -269.86558977721  4.5E-05  4.4E-05  8.5E-04
etot  144  N  Y  0  N    -269.86557345446 -1.6E-05  3.7E-05  1.1E-03
etot  145  N  Y  0  N    -269.86554891394 -2.5E-05  3.3E-05  1.3E-03
etot  146  N  Y  0  N    -269.86556513090  1.6E-05  5.0E-05  1.4E-03
 
 No-fail mode: increasing maximum number of SCF iterations by 99
 
etot  147  Y  Y  0  N    -269.86571973164  1.5E-04  4.2E-05  8.5E-04
etot  148  N  Y  0  N    -269.86578202977  6.2E-05  4.0E-05  7.5E-04
etot  149  N  Y  0  N    -269.86573855583 -4.3E-05  3.1E-05  9.8E-04
etot  150  N  Y  0  N    -269.86570117331 -3.7E-05  2.5E-05  1.2E-03
etot  151  N  Y  0  N    -269.86570309652  1.9E-06  2.3E-05  1.2E-03
etot  152  N  Y  0  N    -269.86572264740  2.0E-05  4.6E-05  1.2E-03
etot  153  N  Y  0  N    -269.86586280897  1.4E-04  4.3E-05  8.3E-04
etot  154  N  Y  0  N    -269.86593672666  7.4E-05  4.3E-05  6.2E-04
etot  155  N  Y  0  N    -269.86598676153  5.0E-05  4.0E-05  4.8E-04
etot  156  N  Y  0  N    -269.86602237323  3.6E-05  3.5E-05  4.8E-04
etot  157  N  Y  0  N    -269.86603252434  1.0E-05  3.0E-05  4.6E-04
etot  158  N  Y  0  N    -269.86602173527 -1.1E-05  2.4E-05  6.9E-04
etot  159  N  Y  0  N    -269.86601787280 -3.9E-06  2.2E-05  8.0E-04
etot  160  N  Y  0  N    -269.86603282700  1.5E-05  2.7E-05  7.4E-04
etot  161  N  Y  0  N    -269.86607304908  4.0E-05  2.7E-05  5.0E-04
etot  162  N  Y  0  N    -269.86610041829  2.7E-05  2.5E-05  4.3E-04
etot  163  N  Y  0  N    -269.86608542500 -1.5E-05  2.2E-05  5.8E-04
etot  164  N  Y  0  N    -269.86610638289  2.1E-05  2.1E-05  5.2E-04
etot  165  N  Y  0  N    -269.86612509567  1.9E-05  3.7E-05  4.6E-04
etot  166  N  Y  0  N    -269.86616419563  3.9E-05  2.4E-05  3.7E-04
etot  167  N  Y  0  N    -269.86617423988  1.0E-05  2.2E-05  3.4E-04
etot  168  N  Y  0  N    -269.86617817426  3.9E-06  2.0E-05  3.1E-04
etot  169  N  Y  0  N    -269.86617398437 -4.2E-06  1.8E-05  4.2E-04
etot  170  N  Y  0  N    -269.86616464876 -9.3E-06  1.6E-05  5.9E-04
etot  171  N  Y  0  N    -269.86617101397  6.4E-06  2.4E-05  5.6E-04
etot  172  N  Y  0  N    -269.86620315913  3.2E-05  2.0E-05  3.3E-04
etot  173  N  Y  0  N    -269.86618617009 -1.7E-05  2.0E-05  5.5E-04
etot  174  N  Y  0  N    -269.86621108486  2.5E-05  1.7E-05  3.6E-04
etot  175  N  Y  0  N    -269.86622372626  1.3E-05  2.1E-05  3.1E-04
etot  176  N  Y  0  N    -269.86623842199  1.5E-05  1.8E-05  2.5E-04
etot  177  N  Y  0  N    -269.86624616175  7.7E-06  1.7E-05  2.5E-04
etot  178  N  Y  0  N    -269.86624245726 -3.7E-06  1.4E-05  3.2E-04
etot  179  N  Y  0  N    -269.86624982355  7.4E-06  1.6E-05  2.8E-04
etot  180  N  Y  0  N    -269.86625960013  9.8E-06  1.4E-05  2.2E-04
etot  181  N  Y  0  N    -269.86626023451  6.3E-07  1.5E-05  2.6E-04
etot  182  N  Y  0  N    -269.86625192569 -8.3E-06  1.3E-05  4.2E-04
etot  183  N  Y  0  N    -269.86624126930 -1.1E-05  1.1E-05  5.4E-04
etot  184  N  Y  0  N    -269.86624923978  8.0E-06  1.6E-05  5.0E-04
etot  185  N  Y  0  N    -269.86626833243  1.9E-05  1.4E-05  3.0E-04
etot  186  N  Y  0  N    -269.86627790272  9.6E-06  1.6E-05  2.5E-04
etot  187  N  Y  0  N    -269.86628697646  9.1E-06  1.6E-05  2.0E-04
etot  188  N  Y  0  N    -269.86629323297  6.3E-06  1.9E-05  1.9E-04
etot  189  N  Y  0  N    -269.86628520122 -8.0E-06  9.7E-06  3.1E-04
etot  190  N  Y  0  N    -269.86628526405  6.3E-08  1.8E-05  3.5E-04
etot  191  N  Y  0  N    -269.86629935343  1.4E-05  1.5E-05  1.7E-04
etot  192  N  Y  0  N    -269.86630517518  5.8E-06  1.3E-05  1.6E-04
etot  193  N  Y  0  N    -269.86630638790  1.2E-06  1.1E-05  1.5E-04
etot  194  N  Y  0  N    -269.86630726638  8.8E-07  1.0E-05  1.8E-04
etot  195  N  Y  0  N    -269.86630607544 -1.2E-06  9.1E-06  2.6E-04
etot  196  N  Y  0  N    -269.86630490310 -1.2E-06  8.4E-06  3.1E-04
etot  197  N  Y  0  N    -269.86630701359  2.1E-06  9.3E-06  3.0E-04
etot  198  N  Y  0  N    -269.86631110356  4.1E-06  1.5E-05  2.7E-04
etot  199  N  Y  0  N    -269.86631920413  8.1E-06  1.2E-05  1.6E-04
etot  200  N  Y  0  N    -269.86632262532  3.4E-06  1.1E-05  1.5E-04
etot  201  N  Y  0  N    -269.86632276745  1.4E-07  9.0E-06  1.3E-04
etot  202  N  Y  0  N    -269.86632181156 -9.6E-07  1.1E-05  2.0E-04
etot  203  N  Y  0  N    -269.86632670317  4.9E-06  1.1E-05  1.1E-04
etot  204  N  Y  0  N    -269.86632953446  2.8E-06  9.7E-06  1.1E-04
etot  205  N  Y  0  N    -269.86633146585  1.9E-06  9.3E-06  1.0E-04
etot  206  N  Y  0  N    -269.86633312295  1.7E-06  8.9E-06  1.0E-04
etot  207  N  Y  0  N    -269.86633378345  6.6E-07  7.8E-06  1.0E-04
etot  208  N  Y  0  N    -269.86633427685  4.9E-07  7.3E-06  1.3E-04
etot  209  N  Y  0  N    -269.86633430714  3.0E-08  6.7E-06  1.7E-04
etot  210  N  Y  0  N    -269.86633495491  6.5E-07  9.6E-06  1.8E-04
etot  211  N  Y  0  N    -269.86633840830  3.5E-06  9.1E-06  1.0E-04
etot  212  N  Y  0  N    -269.86634020403  1.8E-06  8.4E-06  1.0E-04
etot  213  N  Y  0  N    -269.86634147104  1.3E-06  7.9E-06  9.8E-05
etot  214  N  Y  0  N    -269.86634265462  1.2E-06  1.0E-05  8.7E-05
etot  215  N  Y  0  N    -269.86634184169 -8.1E-07  6.1E-06  1.2E-04
etot  216  N  Y  0  N    -269.86634310462  1.3E-06  6.9E-06  9.7E-05
etot  217  N  Y  0  N    -269.86634471791  1.6E-06  7.5E-06  7.1E-05
etot  218  N  Y  0  N    -269.86634591802  1.2E-06  7.2E-06  7.1E-05
etot  219  N  Y  0  N    -269.86634677929  8.6E-07  7.4E-06  6.9E-05
etot  220  N  Y  0  N    -269.86634703709  2.6E-07  6.3E-06  7.7E-05
etot  221  N  Y  0  N    -269.86634627936 -7.6E-07  5.0E-06  1.4E-04
 No-fail mode: converged, returning to original basis set
etot    1  N  N  0  N    -269.86634613661           3.4E-03  3.6E-02
etot    2  Y  Y  0  N    -269.87414710158  7.8E-03  1.8E-03  9.5E-03
etot    3  N  Y  0  N    -269.87544701604  1.3E-03  5.3E-04  2.3E-03
etot    4  Y  Y  0  N    -269.87556890903  1.2E-04  1.9E-04  6.0E-04
etot    5  Y  Y  0  N    -269.87560162396  3.3E-05  7.6E-05  2.1E-04
etot    6  Y  Y  0  N    -269.87560872602  7.1E-06  3.7E-05  1.4E-04
etot    7  N  Y  0  N    -269.87561242629  3.7E-06  2.2E-05  1.1E-04
etot    8  N  Y  0  N    -269.87561390614  1.5E-06  1.4E-05  9.1E-05
etot    9  N  Y  0  N    -269.87561492204  1.0E-06  1.0E-05  7.7E-05
etot   10  N  Y  0  N    -269.87561570570  7.8E-07  8.3E-06  6.8E-05
etot   11  N  Y  0  N    -269.87561634231  6.4E-07  7.0E-06  6.2E-05
etot   12  N  Y  0  N    -269.87561675863  4.2E-07  5.6E-06  5.6E-05
etot   13  N  Y  0  N    -269.87561710984  3.5E-07  4.9E-06  5.4E-05
etot   14  N  N  0  N    -269.87561746701  3.6E-07  0.0E+00  0.0E+00
 
  Computing the dispersion energy correction and its gradients...
  
  
 Energy components, in hartrees:
   (A)  Nuclear repulsion............     222.32867787308
   (E)  Total one-electron terms.....    -805.63728881718
   (I)  Total two-electron terms.....     313.43299347709
   (J)    Coulomb....................     351.54708559250
   (K)    Exchange+Correlation.......     -38.11409211541
   (L)  Electronic energy............    -492.20429534009  (E+I)
   (N0) D3 correction................      -0.00535396778
   (N)  Total energy.................    -269.88097143479  (A+L+N0)
   (O)  Gas phase energy.............    -269.88097143479
  
 SCFE: SCF energy: DFT(pbe-d3)      -269.88097143479 hartrees   iterations:  14
  
 
 HOMO energy:    -0.09012
 LUMO energy:    -0.09038
 
  Orbital energies (hartrees): 
   -18.79724    -9.99728    -9.92331    -9.91850    -9.90846    -9.85195
    -0.98608    -0.69761    -0.64625    -0.58766    -0.53603    -0.47957
    -0.42324    -0.41022    -0.38615    -0.37038    -0.35984    -0.33847
    -0.31103    -0.28490    -0.24792    -0.20547    -0.09012    -0.09038
    -0.06868    -0.04213     0.07706     0.09564     0.12440     0.12839
     0.13622     0.15837     0.16977
 
 ** Warning: Negative HOMO-LUMO gap encountered,
    re-running with vshift=0.0 is suggested
  end of program scf
   
 Time(scf)  user:      300.7  user+sys:      300.7  wallclock:      330.0
  
  start of program cutabab2
  
  end of program cutabab2
   
 Time(cutabab2)  user:        0.3  user+sys:        0.3  wallclock:        0.4
  
  start of program der1a
  
  end of program der1a
   
 Time(der1a)  user:        0.4  user+sys:        0.4  wallclock:        0.7
  
  start of program der1b
  
   
  forces (hartrees/bohr) : total     
   
 atom  label           x              y              z
 ---- --------   -------------  -------------  -------------
    1 O1         -7.618438E-02   4.462306E-02  -2.722382E-02
    2 C3          3.704530E-02  -4.900186E-02   2.213093E-02
    3 C5          4.232184E-02   1.651129E-02  -1.393160E-02
    4 C7         -1.532988E-02  -4.921607E-03   3.671552E-02
    5 H5          5.505701E-03  -1.290312E-02   4.677143E-03
    6 H6          6.830951E-05  -8.483366E-03   6.088227E-04
    7 C10         7.461948E-02  -2.153378E-02   5.074677E-03
    8 H8         -2.657779E-03   9.822387E-03  -3.166598E-03
    9 H9          1.167336E-02   3.058637E-02   3.001299E-03
   10 C13        -4.826261E-02   2.700165E-03   1.100828E-02
   11 H11         8.969139E-03  -3.075310E-03   1.191117E-02
   12 H12        -4.438961E-02  -3.298903E-02  -1.255807E-02
   13 H13         7.169337E-03   2.918563E-02   5.425084E-03
   14 H14        -3.960767E-04  -4.439387E-04  -4.364843E-02
 -------------   -------------  -------------  -------------
     total        1.521315E-04   7.689415E-05   2.439418E-05
   
  end of program der1b
   
 Time(der1b)  user:        5.3  user+sys:        5.3  wallclock:        5.6
  
  start of program geopt
  
 ----------------------------------------------------------------------------
  Geometry optimization step   1
  Total energy:      -269.88097143479 hartrees
 ----------------------------------------------------------------------------
  detected            2  molecular fragments
  
  
  Level shifts adjusted to satisfy step-size constraints
   Step size:    0.3000419
   Cos(theta):   0.9656818
   Final level shift:  -5.5895128E-01
  

  Value of Lagrangian:  -269.880971

  gradient maximum:        1.5957E-01 .  (  4.5000E-04 )
  gradient rms:            4.0908E-02 .  (  3.0000E-04 )
  displacement maximum:    1.6311E-01 .  (  1.8000E-03 )
  displacement rms:        4.6430E-02 .  (  1.2000E-03 )
  
  predicted energy change:  -6.2630E-02
  step size:     0.29729
  step size w/ dynamic constraints:  0.29729
  trust radius:  0.30000
  
  molecular structure not yet converged...
  
  center of mass moved by:
     x:    -3.0174E-02     y:    -4.1638E-02     z:     1.1120E-02
  
  new geometry: 
                                   angstroms
  atom               x                 y                 z
  O1           -2.8465393987      0.7587525780     -0.3069094351 
  C3           -1.9041865246      1.5520874824     -0.5037644407 
  C5           -0.5909364949      0.8662187169     -0.1218172087 
  C7           -0.9256816703     -1.3303465341      0.4759336687 
  H5            0.2092294152      1.1578849377     -0.8328759377 
  H6           -0.2681287865      1.2734115097      0.8596573150 
  C10          -2.1877257173     -2.0335626173      0.0303572350 
  H8           -0.0733752581     -1.7080391557     -0.1241496965 
  H9           -0.6784235201     -1.5327337880      1.5402125126 
  C13          -3.2193259010     -1.1302630946     -0.0324554905 
  H11          -2.0997630818      2.5865644863     -0.9134504862 
  H12          -3.5787147734     -0.6631159769     -0.9557680792 
  H13          -3.6563651396     -0.7486521036      0.8978429857 
  H14          -2.1391503415     -3.1066264932     -0.1808134861 
   
 special geometric constraints coord    value    target  
 -----------------------------------  --------- ---------
                               C5-C7    2.30093   2.30000
  
  nuclear repulsion energy.......           220.610797357 hartrees
  -------------------------------------------------
 /  end of geometry optimization iteration   1   /
 -------------------------------------------------
   
  end of program geopt
   
 Time(geopt)  user:        3.5  user+sys:        3.5  wallclock:        4.0
  
  start of program onee
  
  smallest eigenvalue of S:    3.793E-03
  number of canonical orbitals.....          130
  end of program onee
   
 Time(onee)  user:        0.2  user+sys:        0.2  wallclock:        0.3
  
  start of program probe
  
  end of program probe
   
 Time(probe)  user:        0.2  user+sys:        0.2  wallclock:        0.3
  
  start of program grid
  
   grid     grid set  grid #  grid sym
  ------    --------  ------  --------
  coarse        0        0        1
  medium        0        0        1
  fine          0        0        1
  ultrafine     0        0        1
  charge        0        0        1
  gradient      0        0        1
  density       0        0        1
  DFT-fine    -11        1        1
  DFT-med.    -10        2        1
  DFT-grad    -12        3        1
  DFT-der2     -8        4        1
  DFT-cphf     -9        5        1
  LMP2-enrg     0        0        1
  LMP2-grad     0        0        1
  DFT-cphf2   -15        6        1
  PBF-dens      0        0        1
  plotting      0        0        1
  Rel-grad    -17        0        1
  
  number of gridpoints: 
     atom        O1       C3       C5       C7       H5       H6      C10
  grid # 1     4304     4304     4304     4304     4304     4304     4304
  grid # 2     1192     1192     1192     1192     1192     1192     1192
  grid # 3     5226     5226     5226     5226     5226     5226     5226
  grid # 4    23504    12650    12650    12650    13718    13718    12650
  grid # 5      714      688      688      688      744      744      688
  grid # 6      360      358      358      358      382      382      358
   
  number of gridpoints: 
     atom        H8       H9      C13      H11      H12      H13      H14
  grid # 1     4304     4304     4304     4304     4304     4304     4304
  grid # 2     1192     1192     1192     1192     1192     1192     1192
  grid # 3     5226     5226     5226     5226     5226     5226     5226
  grid # 4    13718    13718    12650    13718    13718    13718    13718
  grid # 5      744      744      688      744      744      744      744
  grid # 6      382      382      358      382      382      382      382
   
  number of gridpoints: 
     atom     total
  grid # 1    60256
  grid # 2    16688
  grid # 3    73164
  grid # 4   196498
  grid # 5    10106
  grid # 6     5206
   
  end of program grid
   
 Time(grid)  user:        1.5  user+sys:        1.5  wallclock:        1.9
  
  start of program scf
  
 Energy computed with NOPS on.
 Convergence Criterion:
    Energy (econv):       1.00E-05
    RMS density (dconv):  5.00E-06
  
       i  u  d  i  g                   
       t  p  i  c  r                                 RMS    maximum
       e  d  i  u  i                       energy  density   DIIS  
       r  t  s  t  d       total energy    change  change    error 
  
etot    1  N  N  0  N    -269.90657521055           8.9E-04  1.2E-02
etot    2  Y  Y  0  N    -269.92477236489  1.8E-02  5.1E-04  4.9E-03
etot    3  N  Y  0  N    -269.92922610579  4.5E-03  3.0E-04  2.1E-03
etot    4  Y  Y  0  N    -269.93046704680  1.2E-03  2.0E-04  1.6E-03
etot    5  Y  Y  0  N    -269.93095829444  4.9E-04  1.4E-04  1.4E-03
etot    6  Y  Y  0  N    -269.93121092437  2.5E-04  1.0E-04  9.2E-04
etot    7  Y  Y  0  N    -269.93135656502  1.5E-04  7.8E-05  7.2E-04
etot    8  N  Y  0  N    -269.93144973532  9.3E-05  6.3E-05  5.6E-04
etot    9  Y  Y  0  N    -269.93152150375  7.2E-05  5.4E-05  5.4E-04
etot   10  Y  Y  0  N    -269.93157718076  5.6E-05  4.7E-05  5.0E-04
etot   11  N  Y  0  N    -269.93162142115  4.4E-05  4.3E-05  4.7E-04
etot   12  N  Y  0  N    -269.93166010386  3.9E-05  3.9E-05  4.5E-04
etot   13  N  Y  0  N    -269.93169269069  3.3E-05  3.7E-05  4.4E-04
etot   14  N  Y  0  N    -269.93172234913  3.0E-05  3.5E-05  4.0E-04
etot   15  N  Y  0  N    -269.93174293067  2.1E-05  3.1E-05  4.2E-04
etot   16  N  Y  0  N    -269.93176133374  1.8E-05  2.9E-05  4.3E-04
etot   17  N  Y  0  N    -269.93177963093  1.8E-05  2.8E-05  4.3E-04
etot   18  N  Y  0  N    -269.93179801080  1.8E-05  2.7E-05  4.1E-04
etot   19  N  Y  0  N    -269.93181507558  1.7E-05  2.7E-05  3.9E-04
etot   20  N  Y  0  N    -269.93183390482  1.9E-05  2.5E-05  3.4E-04
etot   21  N  Y  0  N    -269.93184793309  1.4E-05  2.3E-05  3.3E-04
etot   22  N  Y  0  N    -269.93185898869  1.1E-05  2.2E-05  3.2E-04
etot   23  N  Y  0  N    -269.93186578946  6.8E-06  2.0E-05  3.4E-04
etot   24  N  Y  0  N    -269.93187369501  7.9E-06  1.9E-05  3.5E-04
etot   25  N  Y  0  N    -269.93188206239  8.4E-06  1.9E-05  3.4E-04
etot   26  N  Y  0  N    -269.93189084486  8.8E-06  1.8E-05  3.1E-04
etot   27  N  Y  0  N    -269.93189958775  8.7E-06  1.7E-05  3.0E-04
etot   28  N  Y  0  N    -269.93190646385  6.9E-06  1.8E-05  3.0E-04
etot   29  N  Y  0  N    -269.93191720210  1.1E-05  1.6E-05  2.5E-04
etot   30  N  Y  0  N    -269.93192349913  6.3E-06  1.5E-05  2.5E-04
etot   31  N  Y  0  N    -269.93192874397  5.2E-06  1.4E-05  2.3E-04
etot   32  N  Y  0  N    -269.93193313159  4.4E-06  1.4E-05  2.3E-04
etot   33  N  Y  0  N    -269.93193457590  1.4E-06  1.3E-05  2.5E-04
etot   34  N  Y  0  N    -269.93193751660  2.9E-06  1.4E-05  2.7E-04
etot   35  N  Y  0  N    -269.93194206380  4.5E-06  1.2E-05  2.6E-04
etot   36  N  Y  0  N    -269.93194696166  4.9E-06  1.1E-05  2.2E-04
etot   37  N  Y  0  N    -269.93194983100  2.9E-06  1.1E-05  2.2E-04
etot   38  N  Y  0  N    -269.93195191447  2.1E-06  1.1E-05  2.4E-04
etot   39  N  Y  0  N    -269.93195504003  3.1E-06  1.0E-05  2.3E-04
etot   40  N  Y  0  N    -269.93195943473  4.4E-06  1.2E-05  1.7E-04
etot   41  N  Y  0  N    -269.93196433048  4.9E-06  1.0E-05  1.4E-04
etot   42  N  Y  0  N    -269.93196715063  2.8E-06  9.5E-06  1.3E-04
etot   43  N  Y  0  N    -269.93196915579  2.0E-06  9.6E-06  1.2E-04
etot   44  N  Y  0  N    -269.93197153278  2.4E-06  9.8E-06  1.1E-04
etot   45  N  Y  0  N    -269.93197295021  1.4E-06  8.3E-06  1.1E-04
etot   46  N  Y  0  N    -269.93197424705  1.3E-06  7.9E-06  1.1E-04
etot   47  N  Y  0  N    -269.93197542449  1.2E-06  7.9E-06  1.1E-04
etot   48  N  Y  0  N    -269.93197716148  1.7E-06  7.4E-06  9.8E-05
etot   49  N  Y  0  N    -269.93197824439  1.1E-06  6.8E-06  9.8E-05
etot   50  N  Y  0  N    -269.93197872507  4.8E-07  6.7E-06  1.1E-04
etot   51  N  Y  0  N    -269.93198014147  1.4E-06  6.2E-06  9.5E-05
etot   52  N  Y  0  N    -269.93198096877  8.3E-07  6.0E-06  9.5E-05
etot   53  N  Y  0  N    -269.93198173906  7.7E-07  5.5E-06  9.1E-05
etot   54  N  Y  0  N    -269.93198234274  6.0E-07  6.0E-06  8.6E-05
etot   55  N  Y  0  N    -269.93198344151  1.1E-06  5.5E-06  8.3E-05
etot   56  N  Y  0  N    -269.93198419830  7.6E-07  5.1E-06  7.1E-05
etot   57  N  Y  0  N    -269.93198476215  5.6E-07  4.8E-06  6.6E-05
etot   58  N  N  0  N    -269.93198511628  3.5E-07  0.0E+00  0.0E+00
 
  Computing the dispersion energy correction and its gradients...
  
  
 Energy components, in hartrees:
   (A)  Nuclear repulsion............     220.61079735694
   (E)  Total one-electron terms.....    -802.37752337336
   (I)  Total two-electron terms.....     311.83474090014
   (J)    Coulomb....................     349.90411873330
   (K)    Exchange+Correlation.......     -38.06937783316
   (L)  Electronic energy............    -490.54278247322  (E+I)
   (N0) D3 correction................      -0.00536346288
   (N)  Total energy.................    -269.93734857916  (A+L+N0)
   (O)  Gas phase energy.............    -269.93734857916
  
 SCFE: SCF energy: DFT(pbe-d3)      -269.93734857916 hartrees   iterations:  58
  
 
 HOMO energy:    -0.10677
 LUMO energy:    -0.08761
 
  Orbital energies (hartrees): 
   -18.79463   -10.00304    -9.92314    -9.91483    -9.90847    -9.86324
    -0.96742    -0.69160    -0.64948    -0.58481    -0.53198    -0.47503
    -0.42374    -0.40383    -0.38123    -0.36539    -0.35984    -0.34037
    -0.31096    -0.28693    -0.23883    -0.21531    -0.10677    -0.08761
    -0.06369    -0.03837     0.08336     0.09490     0.12168     0.13013
     0.13724     0.15674     0.17187
 
  end of program scf
   
 Time(scf)  user:       59.6  user+sys:       59.6  wallclock:       64.9
  
  start of program cutabab2
  
  end of program cutabab2
   
 Time(cutabab2)  user:        0.3  user+sys:        0.3  wallclock:        0.4
  
  start of program der1a
  
  end of program der1a
   
 Time(der1a)  user:        0.3  user+sys:        0.3  wallclock:        0.4
  
  start of program der1b
  
   
  forces (hartrees/bohr) : total     
   
 atom  label           x              y              z
 ---- --------   -------------  -------------  -------------
    1 O1         -1.190740E-02   8.381125E-02  -1.746391E-02
    2 C3          1.656929E-02  -6.376180E-02   1.978744E-02
    3 C5         -5.712851E-03   8.282324E-03   6.520102E-03
    4 C7         -4.422208E-03  -1.607733E-02   5.731626E-03
    5 H5          1.733964E-03  -1.335370E-02   1.527995E-04
    6 H6         -1.797152E-03  -3.994850E-03  -3.512759E-04
    7 C10         4.576984E-02   6.660767E-03   1.046259E-02
    8 H8         -3.521555E-03   3.134531E-04   1.291072E-03
    9 H9          3.244093E-03   3.117390E-02   2.007521E-03
   10 C13        -1.895335E-02  -1.716716E-02   1.466246E-02
   11 H11         5.590967E-03  -4.017702E-03   4.215253E-03
   12 H12        -3.698838E-02  -3.768705E-02  -8.593224E-03
   13 H13         6.982453E-03   1.925291E-02   7.964009E-04
   14 H14         3.530628E-03   6.621089E-03  -3.917716E-02
 -------------   -------------  -------------  -------------
     total        1.183421E-04   5.609814E-05   4.169479E-05
   
  end of program der1b
   
 Time(der1b)  user:        5.1  user+sys:        5.1  wallclock:        5.4
  
  start of program geopt
  
 ----------------------------------------------------------------------------
  Geometry optimization step   2
  Total energy:      -269.93734857916 hartrees
 ----------------------------------------------------------------------------
  detected            2  molecular fragments
  
  
  Level shifts adjusted to satisfy step-size constraints
   Step size:    0.3002864
   Cos(theta):   0.9676955
   Final level shift:  -4.2918378E-01
  

  Value of Lagrangian:  -269.937431

  energy change:          -5.6377E-02 .  (  5.0000E-05 )
  gradient maximum:        6.1623E-02 .  (  4.5000E-04 )
  gradient rms:            2.4524E-02 .  (  3.0000E-04 )
  displacement maximum:    1.1168E-01 .  (  1.8000E-03 )
  displacement rms:        4.6689E-02 .  (  1.2000E-03 )
  
  predicted energy change:  -4.2324E-02
  step size:     0.29895
  step size w/ dynamic constraints:  0.29895
  trust radius:  0.30000
  
  molecular structure not yet converged...
  
  center of mass moved by:
     x:    -2.1398E-02     y:    -1.9779E-02     z:     7.7900E-03
  
  new geometry: 
                                   angstroms
  atom               x                 y                 z
  O1           -2.8957093201      0.7703252739     -0.2973960732 
  C3           -1.9010470082      1.4933277764     -0.4986791040 
  C5           -0.5810596471      0.8777576153     -0.0814769897 
  C7           -0.8997950621     -1.3373165260      0.4498322973 
  H5            0.2270565098      1.1011261276     -0.8048975254 
  H6           -0.2606024062      1.3631964824      0.8621436939 
  C10          -2.1544999863     -2.0146706103     -0.0068839179 
  H8           -0.0433001108     -1.7645538223     -0.1034944684 
  H9           -0.6653822032     -1.3700681323      1.5328720430 
  C13          -3.2389494435     -1.1241768703     -0.0222183239 
  H11          -2.0115369364      2.5283929991     -0.9230594902 
  H12          -3.6679973929     -0.6844112811     -0.9249265395 
  H13          -3.6159725200     -0.6888537965      0.9157315335 
  H14          -2.0917640480     -3.0619731991     -0.3232559905 
   
 special geometric constraints coord    value    target  
 -----------------------------------  --------- ---------
                               C5-C7    2.30009   2.30000
  
  nuclear repulsion energy.......           220.321816202 hartrees
  -------------------------------------------------
 /  end of geometry optimization iteration   2   /
 -------------------------------------------------
   
  end of program geopt
   
 Time(geopt)  user:        3.4  user+sys:        3.4  wallclock:        4.0
  
  start of program onee
  
  smallest eigenvalue of S:    3.956E-03
  number of canonical orbitals.....          130
  end of program onee
   
 Time(onee)  user:        0.2  user+sys:        0.2  wallclock:        0.3
  
  start of program probe
  
  end of program probe
   
 Time(probe)  user:        0.2  user+sys:        0.2  wallclock:        0.3
  
  start of program grid
  
   grid     grid set  grid #  grid sym
  ------    --------  ------  --------
  coarse        0        0        1
  medium        0        0        1
  fine          0        0        1
  ultrafine     0        0        1
  charge        0        0        1
  gradient      0        0        1
  density       0        0        1
  DFT-fine    -11        1        1
  DFT-med.    -10        2        1
  DFT-grad    -12        3        1
  DFT-der2     -8        4        1
  DFT-cphf     -9        5        1
  LMP2-enrg     0        0        1
  LMP2-grad     0        0        1
  DFT-cphf2   -15        6        1
  PBF-dens      0        0        1
  plotting      0        0        1
  Rel-grad    -17        0        1
  
  number of gridpoints: 
     atom        O1       C3       C5       C7       H5       H6      C10
  grid # 1     4304     4304     4304     4304     4304     4304     4304
  grid # 2     1192     1192     1192     1192     1192     1192     1192
  grid # 3     5226     5226     5226     5226     5226     5226     5226
  grid # 4    23504    12650    12650    12650    13718    13718    12650
  grid # 5      714      688      688      688      744      744      688
  grid # 6      360      358      358      358      382      382      358
   
  number of gridpoints: 
     atom        H8       H9      C13      H11      H12      H13      H14
  grid # 1     4304     4304     4304     4304     4304     4304     4304
  grid # 2     1192     1192     1192     1192     1192     1192     1192
  grid # 3     5226     5226     5226     5226     5226     5226     5226
  grid # 4    13718    13718    12650    13718    13718    13718    13718
  grid # 5      744      744      688      744      744      744      744
  grid # 6      382      382      358      382      382      382      382
   
  number of gridpoints: 
     atom     total
  grid # 1    60256
  grid # 2    16688
  grid # 3    73164
  grid # 4   196498
  grid # 5    10106
  grid # 6     5206
   
  end of program grid
   
 Time(grid)  user:        1.5  user+sys:        1.5  wallclock:        1.8
  
  start of program scf
  
 Energy computed with NOPS on.
 Convergence Criterion:
    Energy (econv):       1.00E-05
    RMS density (dconv):  5.00E-06
  
       i  u  d  i  g                   
       t  p  i  c  r                                 RMS    maximum
       e  d  i  u  i                       energy  density   DIIS  
       r  t  s  t  d       total energy    change  change    error 
  
etot    1  N  N  0  N    -269.96137208819           5.8E-04  6.7E-03
etot    2  Y  Y  0  N    -269.96828309896  6.9E-03  2.9E-04  2.9E-03
etot    3  N  Y  0  N    -269.96970273942  1.4E-03  1.6E-04  1.9E-03
etot    4  Y  Y  0  N    -269.97013083464  4.3E-04  1.0E-04  1.2E-03
etot    5  Y  Y  0  N    -269.97027850843  1.5E-04  7.1E-05  7.5E-04
etot    6  Y  Y  0  N    -269.97035894402  8.0E-05  5.3E-05  4.7E-04
etot    7  Y  Y  0  N    -269.97040518168  4.6E-05  4.2E-05  3.8E-04
etot    8  N  Y  0  N    -269.97043250946  2.7E-05  3.5E-05  3.6E-04
etot    9  N  Y  0  N    -269.97045732891  2.5E-05  3.1E-05  3.4E-04
etot   10  N  Y  0  N    -269.97047718645  2.0E-05  2.8E-05  3.2E-04
etot   11  N  Y  0  N    -269.97049347005  1.6E-05  2.5E-05  3.1E-04
etot   12  N  Y  0  N    -269.97050775914  1.4E-05  2.3E-05  2.9E-04
etot   13  N  Y  0  N    -269.97051870136  1.1E-05  2.1E-05  2.8E-04
etot   14  N  Y  0  N    -269.97052816407  9.5E-06  1.9E-05  2.8E-04
etot   15  N  Y  0  N    -269.97053671643  8.6E-06  1.8E-05  2.7E-04
etot   16  N  Y  0  N    -269.97054467094  8.0E-06  1.7E-05  2.4E-04
etot   17  N  Y  0  N    -269.97055141023  6.7E-06  1.6E-05  2.3E-04
etot   18  N  Y  0  N    -269.97055680533  5.4E-06  1.4E-05  2.2E-04
etot   19  N  Y  0  N    -269.97056160811  4.8E-06  1.3E-05  2.1E-04
etot   20  N  Y  0  N    -269.97056576851  4.2E-06  1.3E-05  2.0E-04
etot   21  N  Y  0  N    -269.97056971516  3.9E-06  1.2E-05  1.8E-04
etot   22  N  Y  0  N    -269.97057264470  2.9E-06  1.1E-05  1.7E-04
etot   23  N  Y  0  N    -269.97057528695  2.6E-06  1.0E-05  1.7E-04
etot   24  N  Y  0  N    -269.97057794857  2.7E-06  9.3E-06  1.5E-04
etot   25  N  Y  0  N    -269.97058016652  2.2E-06  8.8E-06  1.5E-04
etot   26  N  Y  0  N    -269.97058199454  1.8E-06  8.1E-06  1.3E-04
etot   27  N  Y  0  N    -269.97058380578  1.8E-06  7.6E-06  1.3E-04
etot   28  N  Y  0  N    -269.97058529143  1.5E-06  7.1E-06  1.2E-04
etot   29  N  Y  0  N    -269.97058660466  1.3E-06  6.6E-06  1.1E-04
etot   30  N  Y  0  N    -269.97058766029  1.1E-06  6.1E-06  1.0E-04
etot   31  N  Y  0  N    -269.97058858189  9.2E-07  5.6E-06  1.0E-04
etot   32  N  Y  0  N    -269.97058927305  6.9E-07  5.2E-06  1.0E-04
etot   33  N  Y  0  N    -269.97059003245  7.6E-07  4.9E-06  9.7E-05
etot   34  N  N  0  N    -269.97059058142  5.5E-07  0.0E+00  0.0E+00
 
  Computing the dispersion energy correction and its gradients...
  
  
 Energy components, in hartrees:
   (A)  Nuclear repulsion............     220.32181620193
   (E)  Total one-electron terms.....    -801.81061064745
   (I)  Total two-electron terms.....     311.51820386410
   (J)    Coulomb....................     349.58804099710
   (K)    Exchange+Correlation.......     -38.06983713300
   (L)  Electronic energy............    -490.29240678335  (E+I)
   (N0) D3 correction................      -0.00537903207
   (N)  Total energy.................    -269.97596961349  (A+L+N0)
   (O)  Gas phase energy.............    -269.97596961349
  
 SCFE: SCF energy: DFT(pbe-d3)      -269.97596961349 hartrees   iterations:  34
  
 
 HOMO energy:    -0.11751
 LUMO energy:    -0.08523
 
  Orbital energies (hartrees): 
   -18.79716   -10.00238    -9.92218    -9.91301    -9.90914    -9.87079
    -0.96836    -0.68825    -0.65350    -0.58723    -0.52849    -0.47369
    -0.42590    -0.40371    -0.38486    -0.36852    -0.35470    -0.34007
    -0.31324    -0.28943    -0.23980    -0.22166    -0.11751    -0.08523
    -0.06255    -0.02395     0.08821     0.09743     0.11970     0.12589
     0.13821     0.15411     0.17643
 
  end of program scf
   
 Time(scf)  user:       35.9  user+sys:       35.9  wallclock:       39.1
  
  start of program cutabab2
  
  end of program cutabab2
   
 Time(cutabab2)  user:        0.3  user+sys:        0.3  wallclock:        0.4
  
  start of program der1a
  
  end of program der1a
   
 Time(der1a)  user:        0.3  user+sys:        0.3  wallclock:        0.4
  
  start of program der1b
  
   
  forces (hartrees/bohr) : total     
   
 atom  label           x              y              z
 ---- --------   -------------  -------------  -------------
    1 O1          4.406381E-03   7.813679E-02  -1.673254E-02
    2 C3          1.759608E-02  -4.513772E-02   1.930275E-02
    3 C5         -1.021448E-02  -9.619082E-03  -4.305363E-04
    4 C7         -3.942868E-03  -5.584468E-03   9.811014E-03
    5 H5         -1.251755E-03  -7.156516E-03  -7.445253E-04
    6 H6         -2.755047E-03  -7.440343E-03   2.822718E-03
    7 C10         2.165640E-02   2.320585E-02   1.159402E-02
    8 H8         -5.089143E-04   3.193646E-03   2.029016E-03
    9 H9         -3.085380E-04   2.012146E-02  -2.233895E-03
   10 C13         1.295657E-03  -2.685158E-02   1.850282E-02
   11 H11        -2.854682E-04  -2.248969E-03  -1.508065E-03
   12 H12        -3.311253E-02  -3.771300E-02  -6.822356E-03
   13 H13         6.387140E-03   6.503971E-03  -1.397686E-03
   14 H14         1.159258E-03   1.060868E-02  -3.416117E-02
 -------------   -------------  -------------  -------------
     total        1.213122E-04   1.871941E-05   3.155699E-05
   
  end of program der1b
   
 Time(der1b)  user:        5.1  user+sys:        5.1  wallclock:        5.4
  
  start of program geopt
  
 ----------------------------------------------------------------------------
  Geometry optimization step   3
  Total energy:      -269.97596961349 hartrees
 ----------------------------------------------------------------------------
  detected            2  molecular fragments
  detected            2  molecular fragments
  
  
  Level shifts adjusted to satisfy step-size constraints
   Step size:    0.3002251
   Cos(theta):   0.9527869
   Final level shift:  -3.3964982E-01
  

  Value of Lagrangian:  -269.975978

  energy change:          -3.8621E-02 .  (  5.0000E-05 )
  gradient maximum:        5.5067E-02 .  (  4.5000E-04 )
  gradient rms:            1.8909E-02 .  (  3.0000E-04 )
  displacement maximum:    1.5019E-01 .  (  1.8000E-03 )
  displacement rms:        4.6643E-02 .  (  1.2000E-03 )
  
  predicted energy change:  -3.2956E-02
  step size:     0.29866
  step size w/ dynamic constraints:  0.29866
  trust radius:  0.30000
  
  molecular structure not yet converged...
  
  center of mass moved by:
     x:    -1.2873E-02     y:     6.9929E-03     z:     1.0491E-02
  
  new geometry: 
                                   angstroms
  atom               x                 y                 z
  O1           -2.9370741862      0.7971308351     -0.2614805271 
  C3           -1.9157798193      1.4528165791     -0.4875268864 
  C5           -0.6022724978      0.8234352778     -0.1674882391 
  C7           -0.8860713976     -1.3465235344      0.5418905302 
  H5            0.1752426921      1.0511611420     -0.9188577819 
  H6           -0.2341312705      1.2392631534      0.7895946730 
  C10          -2.0962252428     -1.9538081308     -0.0516026150 
  H8            0.0112276109     -1.7537368375      0.0474917675 
  H9           -0.7329390677     -1.3501405560      1.6362658261 
  C13          -3.2273479445     -1.1127954651     -0.0365416264 
  H11          -1.9742717578      2.4988536515     -0.8894373450 
  H12          -3.7354907964     -0.6931193772     -0.9012388534 
  H13          -3.5548641209     -0.6791805822      0.9197396576 
  H14          -1.9951928888     -2.9370715592     -0.5242354332 
   
 special geometric constraints coord    value    target  
 -----------------------------------  --------- ---------
                               C5-C7    2.30054   2.30000
  
  nuclear repulsion energy.......           221.539302913 hartrees
  -------------------------------------------------
 /  end of geometry optimization iteration   3   /
 -------------------------------------------------
   
  end of program geopt
   
 Time(geopt)  user:        3.3  user+sys:        3.3  wallclock:        3.9
  
  start of program onee
  
  smallest eigenvalue of S:    3.954E-03
  number of canonical orbitals.....          130
  end of program onee
   
 Time(onee)  user:        0.3  user+sys:        0.3  wallclock:        0.4
  
  start of program probe
  
  end of program probe
   
 Time(probe)  user:        0.3  user+sys:        0.3  wallclock:        0.3
  
  start of program grid
  
   grid     grid set  grid #  grid sym
  ------    --------  ------  --------
  coarse        0        0        1
  medium        0        0        1
  fine          0        0        1
  ultrafine     0        0        1
  charge        0        0        1
  gradient      0        0        1
  density       0        0        1
  DFT-fine    -11        1        1
  DFT-med.    -10        2        1
  DFT-grad    -12        3        1
  DFT-der2     -8        4        1
  DFT-cphf     -9        5        1
  LMP2-enrg     0        0        1
  LMP2-grad     0        0        1
  DFT-cphf2   -15        6        1
  PBF-dens      0        0        1
  plotting      0        0        1
  Rel-grad    -17        0        1
  
  number of gridpoints: 
     atom        O1       C3       C5       C7       H5       H6      C10
  grid # 1     4304     4304     4304     4304     4304     4304     4304
  grid # 2     1192     1192     1192     1192     1192     1192     1192
  grid # 3     5226     5226     5226     5226     5226     5226     5226
  grid # 4    23504    12650    12650    12650    13718    13718    12650
  grid # 5      714      688      688      688      744      744      688
  grid # 6      360      358      358      358      382      382      358
   
  number of gridpoints: 
     atom        H8       H9      C13      H11      H12      H13      H14
  grid # 1     4304     4304     4304     4304     4304     4304     4304
  grid # 2     1192     1192     1192     1192     1192     1192     1192
  grid # 3     5226     5226     5226     5226     5226     5226     5226
  grid # 4    13718    13718    12650    13718    13718    13718    13718
  grid # 5      744      744      688      744      744      744      744
  grid # 6      382      382      358      382      382      382      382
   
  number of gridpoints: 
     atom     total
  grid # 1    60256
  grid # 2    16688
  grid # 3    73164
  grid # 4   196498
  grid # 5    10106
  grid # 6     5206
   
  end of program grid
   
 Time(grid)  user:        1.6  user+sys:        1.6  wallclock:        1.9
  
  start of program scf
  
 Energy computed with NOPS on.
 Convergence Criterion:
    Energy (econv):       1.00E-05
    RMS density (dconv):  5.00E-06
  
       i  u  d  i  g                   
       t  p  i  c  r                                 RMS    maximum
       e  d  i  u  i                       energy  density   DIIS  
       r  t  s  t  d       total energy    change  change    error 
  
etot    1  N  N  0  N    -269.98748419168           6.0E-04  7.5E-03
etot    2  Y  Y  0  N    -269.99688237251  9.4E-03  3.2E-04  2.9E-03
etot    3  N  Y  0  N    -269.99896352689  2.1E-03  1.8E-04  2.1E-03
etot    4  Y  Y  0  N    -269.99955587980  5.9E-04  1.1E-04  1.0E-03
etot    5  Y  Y  0  N    -269.99975266727  2.0E-04  7.6E-05  8.6E-04
etot    6  Y  Y  0  N    -269.99984656953  9.4E-05  5.4E-05  6.1E-04
etot    7  Y  Y  0  N    -269.99989105561  4.4E-05  3.8E-05  3.7E-04
etot    8  N  Y  0  N    -269.99990679626  1.6E-05  2.9E-05  2.9E-04
etot    9  N  Y  0  N    -269.99992260829  1.6E-05  2.3E-05  2.4E-04
etot   10  N  Y  0  N    -269.99993239314  9.8E-06  1.9E-05  2.2E-04
etot   11  N  Y  0  N    -269.99993955593  7.2E-06  1.5E-05  2.0E-04
etot   12  N  Y  0  N    -269.99994445590  4.9E-06  1.3E-05  1.7E-04
etot   13  N  Y  0  N    -269.99994832246  3.9E-06  1.1E-05  1.4E-04
etot   14  N  Y  0  N    -269.99995118194  2.9E-06  9.8E-06  1.4E-04
etot   15  N  Y  0  N    -269.99995340939  2.2E-06  8.5E-06  1.3E-04
etot   16  N  Y  0  N    -269.99995519327  1.8E-06  7.6E-06  1.1E-04
etot   17  N  Y  0  N    -269.99995655699  1.4E-06  6.7E-06  1.0E-04
etot   18  N  Y  0  N    -269.99995758967  1.0E-06  5.9E-06  9.3E-05
etot   19  N  Y  0  N    -269.99995846726  8.8E-07  5.5E-06  8.2E-05
etot   20  N  Y  0  N    -269.99995928526  8.2E-07  4.8E-06  7.4E-05
etot   21  N  N  0  N    -269.99995985874  5.7E-07  0.0E+00  0.0E+00
 
  Computing the dispersion energy correction and its gradients...
  
  
 Energy components, in hartrees:
   (A)  Nuclear repulsion............     221.53930291281
   (E)  Total one-electron terms.....    -804.25891763909
   (I)  Total two-electron terms.....     312.71965486754
   (J)    Coulomb....................     350.82111294894
   (K)    Exchange+Correlation.......     -38.10145808140
   (L)  Electronic energy............    -491.53926277155  (E+I)
   (N0) D3 correction................      -0.00539680120
   (N)  Total energy.................    -270.00535665994  (A+L+N0)
   (O)  Gas phase energy.............    -270.00535665994
  
 SCFE: SCF energy: DFT(pbe-d3)      -270.00535665994 hartrees   iterations:  21
  
 
 HOMO energy:    -0.12799
 LUMO energy:    -0.07676
 
  Orbital energies (hartrees): 
   -18.79261    -9.99528    -9.92352    -9.90963    -9.90487    -9.87449
    -0.97024    -0.68861    -0.65643    -0.59053    -0.52496    -0.47213
    -0.42672    -0.40509    -0.38562    -0.37465    -0.34967    -0.34203
    -0.31392    -0.29432    -0.23975    -0.22245    -0.12799    -0.07676
    -0.06043    -0.01180     0.08922     0.10178     0.12162     0.12240
     0.13865     0.15512     0.17438
 
  end of program scf
   
 Time(scf)  user:       23.3  user+sys:       23.3  wallclock:       25.5
  
  start of program cutabab2
  
  end of program cutabab2
   
 Time(cutabab2)  user:        0.3  user+sys:        0.3  wallclock:        0.4
  
  start of program der1a
  
  end of program der1a
   
 Time(der1a)  user:        0.3  user+sys:        0.3  wallclock:        0.4
  
  start of program der1b
  
   
  forces (hartrees/bohr) : total     
   
 atom  label           x              y              z
 ---- --------   -------------  -------------  -------------
    1 O1         -3.386404E-03   6.517590E-02  -8.892384E-03
    2 C3          2.429115E-02  -2.599756E-02   8.903412E-03
    3 C5         -1.963890E-03  -1.459683E-02   1.722258E-02
    4 C7         -2.670094E-03   9.422963E-04  -1.237892E-02
    5 H5         -8.313697E-04  -6.382781E-03  -7.392376E-04
    6 H6         -2.022391E-03  -4.165014E-03   1.229341E-03
    7 C10         5.902607E-04   1.885298E-02   1.152474E-02
    8 H8          6.199730E-04   1.272527E-03   3.307350E-03
    9 H9         -2.799840E-03   1.974240E-02  -1.555423E-03
   10 C13         1.341148E-02  -3.125043E-02   2.326579E-02
   11 H11        -2.350936E-03  -5.642862E-04  -5.204023E-03
   12 H12        -2.730520E-02  -3.615531E-02  -7.559130E-03
   13 H13         2.669323E-03  -3.448785E-04  -1.567770E-03
   14 H14         1.861614E-03   1.347952E-02  -2.749038E-02
 -------------   -------------  -------------  -------------
     total        1.136784E-04   8.541385E-06   6.594159E-05
   
  end of program der1b
   
 Time(der1b)  user:        5.0  user+sys:        5.0  wallclock:        5.2
  
  start of program geopt
  
 ----------------------------------------------------------------------------
  Geometry optimization step   4
  Total energy:      -270.00535665994 hartrees
 ----------------------------------------------------------------------------
  detected            2  molecular fragments
  detected            2  molecular fragments
  
  
  Level shifts adjusted to satisfy step-size constraints
   Step size:    0.3001351
   Cos(theta):   0.9051627
   Final level shift:  -2.6236911E-01
  

  Value of Lagrangian:  -270.005403

  energy change:          -2.9387E-02 .  (  5.0000E-05 )
  gradient maximum:        4.8448E-02 .  (  4.5000E-04 )
  gradient rms:            1.5938E-02 .  (  3.0000E-04 )
  displacement maximum:    1.4899E-01 .  (  1.8000E-03 )
  displacement rms:        4.6615E-02 .  (  1.2000E-03 )
  
  predicted energy change:  -2.6134E-02
  step size:     0.29848
  step size w/ dynamic constraints:  0.29848
  trust radius:  0.30000
  
  molecular structure not yet converged...
  
  center of mass moved by:
     x:    -1.2490E-03     y:    -1.2582E-02     z:     9.9873E-03
  
  new geometry: 
                                   angstroms
  atom               x                 y                 z
  O1           -2.9618159067      0.7964371958     -0.2581025983 
  C3           -1.9033773049      1.4012616155     -0.4937283069 
  C5           -0.5822708453      0.8345020871     -0.1354942901 
  C7           -0.8877421942     -1.3500284731      0.5174004206 
  H5            0.1994364486      1.0339141026     -0.8878028456 
  H6           -0.2399621083      1.2804301078      0.8156182642 
  C10          -2.0915874785     -1.9163773335     -0.0775784685 
  H8            0.0192310038     -1.7865852254      0.0733500536 
  H9           -0.7564066919     -1.2274090394      1.6049152388 
  C13          -3.2298336774     -1.1138330995     -0.0096902485 
  H11          -1.9334068077      2.4268182015     -0.9523311227 
  H12          -3.8075230777     -0.7490237699     -0.8490305655 
  H13          -3.5235827640     -0.6705678266      0.9494815236 
  H14          -1.9970973873     -2.8300478918     -0.6744206161 
   
 special geometric constraints coord    value    target  
 -----------------------------------  --------- ---------
                               C5-C7    2.30038   2.30000
  
  nuclear repulsion energy.......           222.264902492 hartrees
  -------------------------------------------------
 /  end of geometry optimization iteration   4   /
 -------------------------------------------------
   
  end of program geopt
   
 Time(geopt)  user:        3.3  user+sys:        3.3  wallclock:        3.8
  
  start of program onee
  
  smallest eigenvalue of S:    3.911E-03
  number of canonical orbitals.....          130
  end of program onee
   
 Time(onee)  user:        0.3  user+sys:        0.3  wallclock:        0.5
  
  start of program probe
  
  end of program probe
   
 Time(probe)  user:        0.3  user+sys:        0.3  wallclock:        0.3
  
  start of program grid
  
   grid     grid set  grid #  grid sym
  ------    --------  ------  --------
  coarse        0        0        1
  medium        0        0        1
  fine          0        0        1
  ultrafine     0        0        1
  charge        0        0        1
  gradient      0        0        1
  density       0        0        1
  DFT-fine    -11        1        1
  DFT-med.    -10        2        1
  DFT-grad    -12        3        1
  DFT-der2     -8        4        1
  DFT-cphf     -9        5        1
  LMP2-enrg     0        0        1
  LMP2-grad     0        0        1
  DFT-cphf2   -15        6        1
  PBF-dens      0        0        1
  plotting      0        0        1
  Rel-grad    -17        0        1
  
  number of gridpoints: 
     atom        O1       C3       C5       C7       H5       H6      C10
  grid # 1     4304     4304     4304     4304     4304     4304     4304
  grid # 2     1192     1192     1192     1192     1192     1192     1192
  grid # 3     5226     5226     5226     5226     5226     5226     5226
  grid # 4    23504    12650    12650    12650    13718    13718    12650
  grid # 5      714      688      688      688      744      744      688
  grid # 6      360      358      358      358      382      382      358
   
  number of gridpoints: 
     atom        H8       H9      C13      H11      H12      H13      H14
  grid # 1     4304     4304     4304     4304     4304     4304     4304
  grid # 2     1192     1192     1192     1192     1192     1192     1192
  grid # 3     5226     5226     5226     5226     5226     5226     5226
  grid # 4    13718    13718    12650    13718    13718    13718    13718
  grid # 5      744      744      688      744      744      744      744
  grid # 6      382      382      358      382      382      382      382
   
  number of gridpoints: 
     atom     total
  grid # 1    60256
  grid # 2    16688
  grid # 3    73164
  grid # 4   196498
  grid # 5    10106
  grid # 6     5206
   
  end of program grid
   
 Time(grid)  user:        1.6  user+sys:        1.6  wallclock:        1.9
  
  start of program scf
  
 Energy computed with NOPS on.
 Convergence Criterion:
    Energy (econv):       1.00E-05
    RMS density (dconv):  5.00E-06
  
       i  u  d  i  g                   
       t  p  i  c  r                                 RMS    maximum
       e  d  i  u  i                       energy  density   DIIS  
       r  t  s  t  d       total energy    change  change    error 
  
etot    1  N  N  0  N    -270.01790580473           4.9E-04  6.0E-03
etot    2  Y  Y  0  N    -270.02331015322  5.4E-03  2.6E-04  2.2E-03
etot    3  N  Y  0  N    -270.02449256974  1.2E-03  1.5E-04  1.6E-03
etot    4  Y  Y  0  N    -270.02491192575  4.2E-04  9.5E-05  8.0E-04
etot    5  Y  Y  0  N    -270.02506009798  1.5E-04  6.6E-05  6.7E-04
etot    6  Y  Y  0  N    -270.02514126726  8.1E-05  4.9E-05  5.4E-04
etot    7  N  Y  0  N    -270.02517525351  3.4E-05  3.7E-05  4.6E-04
etot    8  N  Y  0  N    -270.02520291955  2.8E-05  3.0E-05  3.9E-04
etot    9  N  Y  0  N    -270.02522113621  1.8E-05  2.5E-05  3.5E-04
etot   10  N  Y  0  N    -270.02523324761  1.2E-05  2.0E-05  3.2E-04
etot   11  N  Y  0  N    -270.02524214548  8.9E-06  1.7E-05  2.8E-04
etot   12  N  Y  0  N    -270.02524902015  6.9E-06  1.5E-05  2.5E-04
etot   13  N  Y  0  N    -270.02525390819  4.9E-06  1.3E-05  2.1E-04
etot   14  N  Y  0  N    -270.02525768644  3.8E-06  1.1E-05  1.8E-04
etot   15  N  Y  0  N    -270.02526052264  2.8E-06  9.5E-06  1.6E-04
etot   16  N  Y  0  N    -270.02526270799  2.2E-06  8.2E-06  1.5E-04
etot   17  N  Y  0  N    -270.02526433820  1.6E-06  7.2E-06  1.3E-04
etot   18  N  Y  0  N    -270.02526564506  1.3E-06  6.3E-06  1.2E-04
etot   19  N  Y  0  N    -270.02526667467  1.0E-06  6.0E-06  1.1E-04
etot   20  N  Y  0  N    -270.02526764412  9.7E-07  5.2E-06  9.3E-05
etot   21  N  Y  0  N    -270.02526838950  7.5E-07  4.4E-06  7.9E-05
etot   22  N  N  0  N    -270.02526881165  4.2E-07  0.0E+00  0.0E+00
 
  Computing the dispersion energy correction and its gradients...
  
  
 Energy components, in hartrees:
   (A)  Nuclear repulsion............     222.26490249213
   (E)  Total one-electron terms.....    -805.71679438316
   (I)  Total two-electron terms.....     313.42662307938
   (J)    Coulomb....................     351.55048518036
   (K)    Exchange+Correlation.......     -38.12386210098
   (L)  Electronic energy............    -492.29017130378  (E+I)
   (N0) D3 correction................      -0.00542710967
   (N)  Total energy.................    -270.03069592132  (A+L+N0)
   (O)  Gas phase energy.............    -270.03069592132
  
 SCFE: SCF energy: DFT(pbe-d3)      -270.03069592132 hartrees   iterations:  22
  
 
 HOMO energy:    -0.13479
 LUMO energy:    -0.07409
 
  Orbital energies (hartrees): 
   -18.79047    -9.99153    -9.92251    -9.91007    -9.90196    -9.87670
    -0.96363    -0.69532    -0.65766    -0.59293    -0.52303    -0.46985
    -0.42692    -0.40449    -0.38666    -0.37972    -0.35177    -0.33740
    -0.31577    -0.29698    -0.24237    -0.22721    -0.13479    -0.07409
    -0.05923     0.00423     0.08775     0.10521     0.11811     0.12262
     0.14098     0.15533     0.17245
 
  end of program scf
   
 Time(scf)  user:       24.5  user+sys:       24.5  wallclock:       26.9
  
  start of program cutabab2
  
  end of program cutabab2
   
 Time(cutabab2)  user:        0.3  user+sys:        0.3  wallclock:        0.4
  
  start of program der1a
  
  end of program der1a
   
 Time(der1a)  user:        0.3  user+sys:        0.3  wallclock:        0.5
  
  start of program der1b
  
   
  forces (hartrees/bohr) : total     
   
 atom  label           x              y              z
 ---- --------   -------------  -------------  -------------
    1 O1          9.279622E-03   5.976302E-02  -8.525306E-03
    2 C3          1.578527E-02  -1.276422E-02   5.348036E-03
    3 C5         -6.144987E-03  -2.402659E-02   1.350857E-02
    4 C7          5.468407E-03   8.295949E-03  -5.723161E-03
    5 H5         -1.696416E-03  -2.383936E-03  -8.309521E-04
    6 H6         -1.987107E-03  -7.243478E-03   2.619494E-03
    7 C10         1.329183E-03   9.415596E-03   6.892449E-03
    8 H8          1.385131E-03   2.176426E-03   2.899349E-03
    9 H9         -4.900223E-03   1.170602E-02  -2.583064E-03
   10 C13         7.454842E-03  -2.042274E-02   2.278037E-02
   11 H11        -4.005688E-03  -1.828901E-03  -7.900935E-03
   12 H12        -2.519153E-02  -3.270598E-02  -7.097402E-03
   13 H13         8.879257E-04  -4.098387E-03   4.485934E-04
   14 H14         2.444267E-03   1.417198E-02  -2.177377E-02
 -------------   -------------  -------------  -------------
     total        1.086930E-04   5.476851E-05   6.227348E-05
   
  end of program der1b
   
 Time(der1b)  user:        5.2  user+sys:        5.2  wallclock:        5.3
  
  start of program geopt
  
 ----------------------------------------------------------------------------
  Geometry optimization step   5
  Total energy:      -270.03069592132 hartrees
 ----------------------------------------------------------------------------
  detected            2  molecular fragments
  detected            2  molecular fragments
  
  
  Level shifts adjusted to satisfy step-size constraints
   Step size:    0.3001251
   Cos(theta):   0.9118314
   Final level shift:  -2.1411075E-01
  

  Value of Lagrangian:  -270.030729

  energy change:          -2.5339E-02 .  (  5.0000E-05 )
  gradient maximum:        4.2761E-02 .  (  4.5000E-04 )
  gradient rms:            1.2241E-02 .  (  3.0000E-04 )
  displacement maximum:    1.6680E-01 .  (  1.8000E-03 )
  displacement rms:        4.6620E-02 .  (  1.2000E-03 )
  
  predicted energy change:  -2.1086E-02
  step size:     0.29850
  step size w/ dynamic constraints:  0.29851
  trust radius:  0.30000
  
  molecular structure not yet converged...
  
  center of mass moved by:
     x:     3.8041E-03     y:     6.4354E-03     z:     5.0195E-03
  
  new geometry: 
                                   angstroms
  atom               x                 y                 z
  O1           -2.9860337764      0.8080378080     -0.2599794413 
  C3           -1.9031528725      1.3712238184     -0.5140567691 
  C5           -0.5924858603      0.8202220846     -0.1241842312 
  C7           -0.8680595272     -1.3707056717      0.5196023169 
  H5            0.2025523861      1.0065962476     -0.8626357874 
  H6           -0.2758283118      1.2304459715      0.8491614309 
  C10          -2.0726233796     -1.8750505819     -0.0970342791 
  H8            0.0462840408     -1.8279537330      0.1174966812 
[...]
    H6       X     0.05024  -0.43551  -0.07626   0.07850   0.00475   0.03297
    H6       Y    -0.08499  -0.06922  -0.12688   0.25825   0.08865   0.68606
    H6       Z    -0.01097  -0.08589  -0.01336   0.03937  -0.00622   0.01820
    C10      X     0.00964  -0.01569   0.01778   0.00947  -0.00953  -0.02387
    C10      Y     0.13185  -0.01506   0.12541   0.04459   0.03642  -0.00759
    C10      Z     0.05914   0.00999  -0.03573  -0.01155  -0.01774  -0.00534
    H8       X    -0.04180  -0.01994   0.00312  -0.02029  -0.08069  -0.06044
    H8       Y    -0.03396   0.03474  -0.48184  -0.04802   0.17464  -0.35006
    H8       Z    -0.20332  -0.01591   0.25288  -0.02652  -0.20246   0.06529
    H9       X     0.26288  -0.00430  -0.11140   0.03279   0.15052   0.02353
    H9       Y    -0.19209  -0.02091   0.31891   0.03877  -0.42474  -0.16289
    H9       Z     0.01390   0.00699  -0.07124  -0.01468   0.11042   0.02292
    C13      X    -0.10403  -0.01124  -0.03557  -0.00839  -0.02550   0.01362
    C13      Y    -0.04124  -0.01121  -0.02046  -0.00963  -0.00523  -0.00351
    C13      Z     0.02097   0.01164   0.00774  -0.00218  -0.06358   0.00084
    H11      X    -0.00149  -0.09590   0.00147   0.02093  -0.03200  -0.00148
    H11      Y     0.06211   0.21872   0.00959  -0.09477   0.05400  -0.10945
    H11      Z     0.01003  -0.10983   0.00723  -0.03595  -0.00528  -0.02786
    H12      X     0.00168  -0.00038  -0.05018  -0.01679  -0.16129   0.03455
    H12      Y    -0.07816   0.04380  -0.28173  -0.14058  -0.27567   0.22556
    H12      Z    -0.19833  -0.03102   0.11797   0.05483   0.31086  -0.11169
    H13      X    -0.33651  -0.04666  -0.00163   0.01229   0.28996   0.00063
    H13      Y    -0.10147  -0.07844   0.12245   0.05604   0.41540  -0.00881
    H13      Z     0.03605   0.03174  -0.03719  -0.02342  -0.19047   0.00169
    H14      X     0.03476  -0.01077  -0.07623  -0.01418   0.06896  -0.04975
    H14      Y     0.34662   0.04181  -0.33015  -0.12638  -0.13673   0.02963
    H14      Z    -0.02290  -0.01128   0.13909   0.05390   0.04195  -0.01868
  
  vibration #           13        14        15        16        17        18
                 --------- --------- --------- --------- --------- ---------
  frequencies       924.79    949.97    962.76    970.66    995.55   1015.60
  intensities         0.45      0.57     38.28      5.14      2.04      5.07
  reduc. mass         0.21      0.41      0.64      0.45      0.46      0.48
  force const         0.11      0.22      0.35      0.25      0.27      0.29
    O1       X     0.01641   0.00263  -0.01522  -0.06101   0.06550   0.00859
    O1       Y    -0.00357  -0.00385   0.02167  -0.00398   0.00906   0.02437
    O1       Z     0.00919   0.00609   0.00048  -0.00890   0.01265  -0.00413
    C3       X    -0.00641  -0.02205   0.01248   0.00781   0.01825   0.02505
    C3       Y    -0.00268  -0.01100  -0.12246   0.07661   0.02753  -0.02104
    C3       Z    -0.00868  -0.01768  -0.01582   0.01644  -0.00831  -0.01436
    C5       X    -0.01847  -0.00299   0.01575   0.09662  -0.10737  -0.02989
    C5       Y     0.00525   0.07166   0.02215  -0.02181  -0.01973  -0.00376
    C5       Z     0.00541   0.00897   0.02495  -0.02262   0.01295   0.00900
    C7       X     0.02403   0.01208   0.01835   0.00563   0.01066  -0.09103
    C7       Y    -0.02086   0.09622  -0.00117   0.00444  -0.01074   0.02442
    C7       Z    -0.04647  -0.02069  -0.01839  -0.01935  -0.01620   0.00730
    H5       X    -0.04677   0.04667   0.05263   0.19779  -0.24356  -0.08821
    H5       Y     0.02930  -0.15944  -0.18750   0.02445   0.10866   0.05881
    H5       Z    -0.06538   0.00260  -0.00296   0.30589  -0.30688  -0.12284
    H6       X     0.05564   0.07609  -0.07011  -0.22120   0.23064   0.06546
    H6       Y     0.00831  -0.33938   0.35241   0.15773  -0.14277   0.05547
    H6       Z     0.01700   0.03029   0.00319  -0.07140   0.06515   0.02079
    C10      X     0.00237  -0.00802  -0.00483  -0.00368  -0.00128   0.00416
    C10      Y    -0.00403  -0.03951  -0.02280  -0.06188  -0.04773   0.01731
    C10      Z     0.00034   0.02714   0.01346   0.02915   0.03516   0.00723
    H8       X     0.25109  -0.13818   0.02004   0.03087   0.04839  -0.23929
    H8       Y     0.22904  -0.55819  -0.14222  -0.06193  -0.03635  -0.10202
    H8       Z     0.20691   0.13305   0.07672   0.06962   0.07158  -0.17546
    H9       X    -0.40473  -0.04139  -0.00943  -0.06685  -0.00516   0.05809
    H9       Y    -0.27982  -0.45428   0.13569   0.00140   0.27784  -0.17068
    H9       Z     0.03431   0.07546  -0.03718  -0.01008  -0.06070   0.02112
    C13      X     0.02782   0.01535  -0.00759  -0.01080  -0.03194   0.09231
    C13      Y     0.01584  -0.00956   0.00633   0.03643   0.01207   0.04320
    C13      Z     0.04462  -0.01482  -0.00994  -0.01859  -0.02494   0.00267
    H11      X     0.00618  -0.00314  -0.16210  -0.05050   0.19421   0.03951
    H11      Y     0.00788  -0.05391   0.63645  -0.28277  -0.08824   0.11581
    H11      Z    -0.00618  -0.02091   0.08790  -0.05674   0.00454   0.01594
    H12      X     0.18142   0.00350  -0.02955  -0.04324  -0.10739   0.19185
    H12      Y    -0.25022   0.09247  -0.10631  -0.42966  -0.25643  -0.51621
    H12      Z    -0.21123  -0.01802   0.06858   0.18321   0.21316  -0.03933
    H13      X    -0.31777   0.06144   0.02144  -0.03367   0.07295  -0.16116
    H13      Y     0.36728   0.09004   0.10685  -0.06621   0.06079  -0.40828
    H13      Z    -0.07095  -0.04464  -0.03987   0.01458  -0.03641   0.13564
    H14      X    -0.33495   0.02027   0.01198   0.01706   0.10019  -0.00975
    H14      Y     0.02195   0.16028   0.26515   0.31797   0.39221  -0.13563
    H14      Z     0.00671  -0.05103  -0.09559  -0.11561  -0.13532   0.06870
  
  vibration #           19        20        21        22        23        24
                 --------- --------- --------- --------- --------- ---------
  frequencies      1040.21   1225.69   1245.71   1251.11   1327.77   1389.83
  intensities         0.44     17.90      2.05      3.31     10.67      9.11
  reduc. mass         0.63      1.50      0.64      1.61      1.22      0.56
  force const         0.40      1.32      0.58      1.49      1.26      0.64
    O1       X     0.00194  -0.02808   0.02397   0.01210   0.09948  -0.00687
    O1       Y     0.01332  -0.01008   0.00172  -0.00080   0.02241   0.00774
    O1       Z    -0.00387   0.02075  -0.00892  -0.00633  -0.05278  -0.00592
    C3       X     0.01616  -0.04053  -0.01642  -0.01028  -0.06417   0.03790
    C3       Y    -0.01074   0.02225  -0.01171  -0.00636  -0.01771   0.00634
    C3       Z    -0.02140  -0.14871   0.04437   0.03297   0.06410   0.00093
    C5       X    -0.01339   0.04836  -0.00804  -0.00284   0.00238  -0.00551
    C5       Y     0.00864  -0.01681   0.01869   0.00400   0.00759  -0.01007
    C5       Z     0.01225   0.11042  -0.02817  -0.02055   0.02215   0.01480
    C7       X     0.10356   0.00989   0.05834  -0.01676  -0.00052   0.00010
    C7       Y     0.00986  -0.01343   0.02439  -0.02652  -0.01174   0.00963
    C7       Z    -0.01513   0.01656   0.08834  -0.04822  -0.00885   0.02711
    H5       X    -0.03508   0.07010  -0.00577   0.00214  -0.02907  -0.04189
    H5       Y    -0.01851   0.08341  -0.04345  -0.01575  -0.01570   0.01281
    H5       Z    -0.07353   0.18272  -0.04631  -0.00893  -0.06618  -0.07267
    H6       X     0.04896   0.48307  -0.12792  -0.09372  -0.05850  -0.01175
    H6       Y     0.03791  -0.06687  -0.06968   0.01582  -0.07676  -0.00732
    H6       Z     0.01995   0.19419  -0.04880  -0.03717   0.01203   0.01096
    C10      X    -0.00452  -0.03286  -0.06767  -0.01744  -0.02535   0.12494
    C10      Y    -0.01750   0.01282  -0.02045   0.07958   0.00237  -0.01890
    C10      Z    -0.00802   0.00783  -0.06154   0.14027   0.00153  -0.00010
    H8       X     0.25518   0.02143   0.04355   0.02002   0.04220  -0.25518
    H8       Y     0.09133   0.04682  -0.02631   0.07287   0.02643  -0.07707
    H8       Z     0.19472  -0.00273   0.06965  -0.02221   0.04189  -0.35588
    H9       X    -0.13931   0.06080   0.38522  -0.30099   0.01205  -0.30148
    H9       Y    -0.29410   0.12294   0.10179  -0.01722   0.02588   0.06235
    H9       Z     0.06405  -0.00906   0.05549  -0.02660  -0.01494   0.03056
    C13      X    -0.09565   0.02190   0.02623   0.04410   0.00634  -0.00510
    C13      Y     0.06127  -0.00484  -0.00038  -0.05114   0.01603  -0.01451
    C13      Z    -0.01971  -0.02557  -0.03030  -0.09519   0.00173  -0.02272
    H11      X    -0.00100  -0.20247   0.02818   0.02306  -0.75572  -0.22278
    H11      Y     0.08101   0.01448  -0.02926  -0.00559  -0.15626  -0.03264
    H11      Z    -0.00477  -0.18841   0.04917   0.03828  -0.10343  -0.05315
    H12      X    -0.22140   0.02993   0.02587   0.02542   0.02313  -0.20383
    H12      Y     0.00319  -0.02153  -0.08125   0.05350  -0.07912   0.18384
    H12      Z     0.25217  -0.02986  -0.00610  -0.05003  -0.00342   0.31782
    H13      X     0.01906   0.08846   0.03026   0.43419  -0.00713  -0.29614
    H13      Y    -0.49093  -0.06501  -0.07903  -0.20383  -0.02795   0.02080
    H13      Z     0.16218  -0.00944  -0.01079  -0.05044   0.01408  -0.02336
    H14      X    -0.03072  -0.18619  -0.66976  -0.26380   0.16257  -0.37153
    H14      Y    -0.23477   0.04588   0.07434   0.11795  -0.01102   0.04189
    H14      Z     0.06599   0.00326  -0.07203   0.14716  -0.00267   0.00131
  
  vibration #           25        26        27        28        29        30
                 --------- --------- --------- --------- --------- ---------
  frequencies      1434.95   1490.03   1501.83   1586.74   2902.51   3091.82
  intensities        10.34      3.34     12.80     42.20    107.13      5.95
  reduc. mass         0.75      0.52      0.77      1.96      0.92      0.26
  force const         0.92      0.68      1.03      2.91      4.59      1.45
    O1       X     0.06927   0.01341  -0.02570  -0.05531  -0.00319  -0.00030
    O1       Y     0.01192  -0.00086   0.00602  -0.01033  -0.00096  -0.00024
    O1       Z    -0.01586   0.00065  -0.00415   0.00778   0.00011  -0.00008
    C3       X    -0.10359  -0.05457   0.11108   0.14165  -0.00799   0.00214
    C3       Y    -0.03427  -0.00313   0.00266   0.01140  -0.01414  -0.00048
    C3       Z     0.04720  -0.01234   0.03531   0.02273   0.07887   0.00261
    C5       X    -0.05383   0.03037  -0.07909  -0.06057   0.00024  -0.01811
    C5       Y     0.00765   0.00248  -0.00907   0.00613   0.00148  -0.00433
    C5       Z    -0.08120   0.01587  -0.05296  -0.03527  -0.00336  -0.01599
    C7       X     0.02566  -0.06239  -0.08720   0.07974   0.00019   0.04571
    C7       Y    -0.00595  -0.01696   0.00705   0.00966   0.00022  -0.00668
    C7       Z     0.01350  -0.04053  -0.03736   0.02261  -0.00026   0.02374
    H5       X     0.16446   0.01181   0.01253  -0.03078  -0.03977   0.23613
    H5       Y    -0.02106   0.00004   0.01614   0.00191  -0.01152   0.05201
    H5       Z     0.54593  -0.05182   0.25382   0.07320   0.01978  -0.08267
    H6       X     0.39181  -0.07625   0.28731   0.12766   0.00193  -0.04581
    H6       Y     0.10833  -0.00768   0.09141   0.00766  -0.00233   0.00424
    H6       Z     0.00014   0.00192   0.00119  -0.01417   0.00385   0.25223
    C10      X    -0.00666  -0.01801   0.08900  -0.14963   0.00007  -0.00219
    C10      Y    -0.00520   0.03741   0.00097   0.02484  -0.00027   0.01239
    C10      Z    -0.00602   0.03790   0.01638  -0.00015  -0.00059   0.03256
    H8       X    -0.06351   0.15488   0.10508   0.01504   0.00030  -0.47163
    H8       Y    -0.01825   0.07157   0.02754  -0.02069  -0.00127   0.17412
    H8       Z    -0.13786   0.29633   0.30089  -0.09299   0.00058   0.27150
    H9       X    -0.14529   0.25911   0.33194  -0.13705   0.00016  -0.03697
    H9       Y     0.03230  -0.06483  -0.12935   0.02979  -0.00011  -0.09023
    H9       Z     0.01938  -0.05975  -0.05038   0.04600   0.00223  -0.53631
    C13      X     0.01163   0.09494  -0.03257   0.07971   0.00009  -0.00140
    C13      Y     0.01485  -0.03487  -0.01402  -0.04204   0.00112  -0.00083
    C13      Z    -0.00567  -0.05370   0.00442  -0.02386  -0.00047  -0.00305
    H11      X     0.18610   0.12039  -0.24613  -0.19486   0.17593  -0.00001
    H11      Y     0.02637   0.01356  -0.02770  -0.02826   0.16669   0.00261
    H11      Z     0.11026   0.01551  -0.01974  -0.02881  -0.92397  -0.01281
    H12      X    -0.03539  -0.15860  -0.02333   0.01139   0.00015   0.02893
    H12      Y    -0.00357   0.17850   0.03686   0.04585  -0.00006   0.00383
    H12      Z     0.09529   0.42662  -0.03514   0.11483   0.00007   0.01264
    H13      X    -0.12005  -0.45862   0.09177  -0.17399  -0.00010   0.00032
    H13      Y    -0.03579  -0.01256   0.01709   0.02713  -0.00062   0.00496
    H13      Z     0.01182  -0.06498  -0.00398  -0.05641   0.00616   0.02133
    H14      X     0.03221   0.04965  -0.16577   0.17795   0.00017  -0.01759
    H14      Y    -0.00465   0.01438   0.02018  -0.01833   0.00262  -0.14857
    H14      Z    -0.00984   0.05442   0.02649   0.00090   0.00617  -0.39934
  
  vibration #           31        32        33        34        35        36
                 --------- --------- --------- --------- --------- ---------
  frequencies      3094.92   3097.36   3102.48   3182.18   3189.58   3200.69
  intensities        12.80     10.64      4.30      3.56      5.92     12.57
  reduc. mass         0.48      0.45      0.23      0.43      0.55      0.43
  force const         2.73      2.54      1.30      2.55      3.31      2.61
    O1       X     0.00048  -0.00020   0.00049   0.00011  -0.00021  -0.00020
    O1       Y    -0.00010  -0.00023   0.00029   0.00014   0.00003  -0.00006
    O1       Z    -0.00042   0.00021  -0.00046  -0.00018  -0.00036   0.00036
    C3       X    -0.00031  -0.00195   0.00274  -0.00044  -0.00015   0.00140
    C3       Y    -0.00018   0.00072  -0.00115  -0.00034  -0.00016   0.00077
    C3       Z     0.00060  -0.00239   0.00482   0.00141  -0.00014  -0.00363
    C5       X    -0.00285   0.02525  -0.04133  -0.02034   0.00601   0.05294
    C5       Y    -0.00122   0.00628  -0.01073  -0.00355   0.00092   0.00839
    C5       Z    -0.00245   0.01926  -0.02643   0.02319  -0.00757  -0.06992
    C7       X    -0.00511  -0.01074  -0.02988   0.04144   0.00078   0.01201
    C7       Y     0.00083  -0.00191   0.00367  -0.02406  -0.00114  -0.00744
    C7       Z    -0.00475  -0.01639  -0.01779  -0.07418  -0.00377  -0.02634
    H5       X     0.04156  -0.33172   0.53891   0.20744  -0.06129  -0.52746
    H5       Y     0.00961  -0.07430   0.12210   0.04626  -0.01384  -0.12052
    H5       Z    -0.01467   0.11574  -0.18701  -0.06716   0.01949   0.16955
    H6       X    -0.00786   0.05856  -0.08620   0.03292  -0.01159  -0.10709
    H6       Y     0.00080  -0.00403   0.00479  -0.00459   0.00086   0.01304
    H6       Z     0.04379  -0.32305   0.47088  -0.20829   0.07211   0.66993
    C10      X     0.00514   0.00408   0.00285  -0.00047  -0.00012  -0.00027
    C10      Y     0.00185   0.02487   0.01023  -0.00342   0.00375  -0.00134
    C10      Z     0.00905   0.06277   0.02460  -0.00860   0.00845  -0.00330
    H8       X     0.04857   0.06748   0.29074  -0.54093  -0.01824  -0.16315
    H8       Y    -0.01867  -0.02322  -0.10691   0.19515   0.00698   0.06018
    H8       Z    -0.03024  -0.03906  -0.16553   0.29085   0.00950   0.08743
    H9       X     0.00357   0.01820   0.02544   0.05695   0.00007   0.02114
    H9       Y     0.01294   0.03702   0.06218   0.09521   0.00503   0.03748
    H9       Z     0.08362   0.21923   0.36316   0.59683   0.03088   0.23051
    C13      X    -0.04704   0.00204   0.00637   0.00021   0.05772  -0.00595
    C13      Y     0.01462  -0.00474  -0.00405   0.00049   0.02074  -0.00261
    C13      Z     0.04176  -0.01122  -0.00879   0.00071   0.06974  -0.00805
    H11      X     0.00137   0.00110  -0.00017   0.00148   0.00064  -0.00520
    H11      Y     0.00246  -0.00207   0.00584   0.00197   0.00025  -0.00414
    H11      Z    -0.00611   0.00849  -0.02084  -0.00850  -0.00026   0.02933
    H12      X     0.51146   0.00493  -0.05605  -0.00535  -0.68056   0.06914
    H12      Y     0.07632   0.00191  -0.00694  -0.00146  -0.09187   0.00883
    H12      Z     0.25245   0.00243  -0.02709  -0.00194  -0.31496   0.03239
    H13      X    -0.00157  -0.00203  -0.00082  -0.00220   0.01164  -0.00210
    H13      Y    -0.22585   0.03936   0.04085   0.00095  -0.16289   0.02066
    H13      Z    -0.72537   0.12397   0.12812  -0.00232  -0.51988   0.06400
    H14      X    -0.00734  -0.03574  -0.01414   0.00507  -0.00234   0.00182
    H14      Y    -0.04526  -0.27136  -0.10231   0.03200  -0.03187   0.01196
    H14      Z    -0.12324  -0.73051  -0.27335   0.08769  -0.08553   0.03558
  
  Number of imaginary frequencies:   1
   
  Writing vibrational animation data to ts.vib
  Writing IR vibrational spectrum data to ts_vib.spm
  rotational symmetry number:  1

  rotational temperatures (K):      0.226955      0.180890      0.116306
   
  The Quasi-Harmonic approximation will be applied to compute
  vibrational constributions to thermodynamic properties.
  Frequencies will be adjusted to a minimum value of  100.00 cm^-1.

    1 vibrational frequencies below   0.0 cm-1 not included in zero-point
  energy or thermochemical analysis.  Set freqcut to change the frequency
  cutoff value.

  vibrational temperatures:
       mode:      2        3        4        5        6        7
  temp. (K):   159.94   367.00   438.67   544.46   566.51   626.53
   
       mode:      8        9       10       11       12       13
  temp. (K):   734.68  1014.87  1123.12  1189.43  1245.92  1330.57
   
       mode:     14       15       16       17       18       19
  temp. (K):  1366.79  1385.19  1396.57  1432.37  1461.23  1496.63
   
       mode:     20       21       22       23       24       25
  temp. (K):  1763.49  1792.30  1800.06  1910.36  1999.65  2064.57
   
       mode:     26       27       28       29       30       31
  temp. (K):  2143.82  2160.79  2282.96  4176.05  4448.43  4452.90
   
       mode:     32       33       34       35       36
  temp. (K):  4456.40  4463.77  4578.44  4589.08  4605.08
   
   
  Thermodynamic properties calculated assuming an ideal gas

  In the table below, the units for temperature
  are kelvins, the units for U, H, and G are
  kcal/mol and the units for Cv and S are cal/(mol K)

  The zero point energy (ZPE):     71.111 kcal/mol
  is not included in U, H, or G in the table below
  
 
  =============================================================================
  Thermodynamic properties for P = 1.00E+00 atm, calculated at   1 temperatures


  T =   298.15 K, P = 1.00E+00 atm
   
                  U         Cv          S          H          G        ln(Q)
              =========  =========  =========  =========  =========  =========
  trans.          0.889      2.981     39.200      1.481    -10.206   17.22638
  rot.            0.889      2.981     26.412      0.889     -6.986   11.79096
  vib.            2.155     17.533     11.621      2.155     -1.309    2.21002
  elec.           0.000      0.000      0.000      0.000      0.000    0.00000
  ----------------------------------------------------------------------------
  total           3.933     23.494     77.233      4.525    -18.502   31.22736
   
   Total internal energy, Utot(SCFE + ZPE + U):    -270.008778 hartrees
   Total enthalpy, Htot (Utot + nRT), with n=1:    -270.007834 hartrees
    Total Gibbs free energy, Gtot (Htot - T*S):    -270.044530 hartrees
   
  end of program freq
   
 Time(freq)  user:        3.3  user+sys:        3.3  wallclock:        3.8

 Total cpu seconds     user:     944.872   user+sys:     944.872
  
 Total elapsed time:    1179 seconds

Job ts completed on hpc-25-04.cm.cluster at Thu Apr 20 10:58:54 2023
