/groups/wag/pkozlows/miniconda3/envs/pyscf/lib/python3.11/site-packages/pyscf/dft/libxc.py:771: UserWarning: Since PySCF-2.3, B3LYP (and B3P86) are changed to the VWN-RPA variant, corresponding to the original definition by Stephens et al. (issue 1480) and the same as the B3LYP functional in Gaussian. To restore the VWN5 definition, you can put the setting "B3LYP_WITH_VWN5 = True" in pyscf_conf.py
  warnings.warn('Since PySCF-2.3, B3LYP (and B3P86) are changed to the VWN-RPA variant, '
/central/home/pkozlows/ch121b/gan/dft/g0w0/pbe/szv/222/2/sz2g.py:8: UserWarning: Use ase.build.bulk() instead
  ase_cell = bulk('GaN', 'wurtzite', a=3.19, c=5.19)
#INFO: **** input file is /central/home/pkozlows/ch121b/gan/dft/g0w0/pbe/szv/222/2/sz2g.py ****
import os
import numpy as np
import pyscf.pbc.tools.pyscf_ase as pyscf_ase
from ase.lattice import bulk
from pyscf.pbc import gto, scf, dft
from pyscf.pbc.gw import krgw_ac

ase_cell = bulk('GaN', 'wurtzite', a=3.19, c=5.19)

cell = gto.Cell()
cell.atom = pyscf_ase.ase_atoms_to_pyscf(ase_cell)
cell.a = np.array(ase_cell.cell)
cell.exp_to_discard = 0.1

cell.basis = 'gth-szv'
cell.pseudo = 'gth-pade'
cell.verbose = 5
cell.rcut = 93
cell.build()

kpts = cell.make_kpts([2,2,2])
kmf = dft.KRKS(cell).density_fit()
kmf.kpts = kpts
kmf.xc = 'pbe'
kmf.kernel()

# Default is AC frequency integration
mygw = krgw_ac.KRGWAC(kmf)
mygw.kernel()

# # Extracting HOMO and LUMO energies
nocc = cell.nelectron // 2  # Number of occupied orbitals

au2ev = 27.211

dft_homo = max(kmf.mo_energy[0][:nocc])
dft_lumo = min(kmf.mo_energy[0][nocc:])
dft_gap = dft_lumo - dft_homo
print("DFT HOMO energy:", dft_lumo*au2ev)
print("DFT LUMO energy:", dft_homo*au2ev)
print("DFT Band gap at Gamma point [eV]:", dft_gap*au2ev)

gw_homo = max(mygw.mo_energy[0][:nocc])
gw_lumo = min(mygw.mo_energy[0][nocc:])
gw_gap = gw_lumo - gw_homo
print("GW HOMO energy:", gw_lumo*au2ev)
print("GW LUMO energy:", gw_homo*au2ev)
print("GW Band gap at Gamma point [eV]:", gw_gap*au2ev)
#INFO: ******************** input file end ********************


System: uname_result(system='Linux', node='hpc-92-10.cm.cluster', release='3.10.0-1160.25.1.el7.x86_64', version='#1 SMP Wed Apr 28 21:49:45 UTC 2021', machine='x86_64')  Threads 10
Python 3.11.5 (main, Sep 11 2023, 13:54:46) [GCC 11.2.0]
numpy 1.26.0  scipy 1.11.3
Date: Tue Nov 28 19:43:23 2023
PySCF version 2.4.0
PySCF path  /groups/wag/pkozlows/miniconda3/envs/pyscf/lib/python3.11/site-packages/pyscf

[ENV] PYSCF_CONFIG_FILE /home/pkozlows
[CONFIG] conf_file /home/pkozlows/.pyscf_conf.py
[INPUT] verbose = 5
[INPUT] max_memory = 165540 
[INPUT] num. atoms = 4
[INPUT] num. electrons = 36
[INPUT] charge = 0
[INPUT] spin (= nelec alpha-beta = 2S) = 0
[INPUT] symmetry False subgroup None
[INPUT] Mole.unit = angstrom
[INPUT] Symbol           X                Y                Z      unit          X                Y                Z       unit  Magmom
[INPUT]  1 Ga     0.000000000000   0.000000000000   0.000000000000 AA    0.000000000000   0.000000000000   0.000000000000 Bohr   0.0
[INPUT]  2 N     -0.000000000000   1.841747358715   0.643929030186 AA   -0.000000000000   3.480398098612   1.216849510709 Bohr   0.0
[INPUT]  3 Ga    -0.000000000000   1.841747358715   2.595000000000 AA   -0.000000000000   3.480398098612   4.903839293246 Bohr   0.0
[INPUT]  4 N      0.000000000000   0.000000000000   3.238929030186 AA    0.000000000000   0.000000000000   6.120688803955 Bohr   0.0
[INPUT] ---------------- BASIS SET ---------------- 
[INPUT] l, kappa, [nprim/nctr], expnt,             c_1 c_2 ...
[INPUT] Ga
[INPUT] 0    0    [6    /1   ]  7.06665397037     0.00403882881
                                3.42836918        -0.04992601521
                                1.43006411438     0.270487560795
                                0.571610928613    0.114461485481
                                0.232196966975    -0.765662388169
                                0.076561670688    -0.4118900947
[INPUT] 1    0    [6    /1   ]  7.06665397037     0.000167446202
                                3.42836918        0.003362568505
                                1.43006411438     0.130532105798
                                0.571610928613    -0.096032824634
                                0.232196966975    -0.807329497232
                                0.076561670688    -0.419386452377
[INPUT] 2    0    [6    /1   ]  7.06665397037     -0.311164169605
                                3.42836918        -0.386388805667
                                1.43006411438     -0.341437057173
                                0.571610928613    -0.20460821239
                                0.232196966975    -0.056129936831
                                0.076561670688    -0.001205250841
[INPUT] N
[INPUT] 0    0    [4    /1   ]  6.1526903413      0.1506300537
                                1.823633228       -0.0360100734
                                0.567662887       -0.6942023212
                                0.1628222852      -0.3878929987
[INPUT] 1    0    [4    /1   ]  6.1526903413      -0.0950603476
                                1.823633228       -0.2918864295
                                0.567662887       -0.473905005
                                0.1628222852      -0.389341867

Ewald components = 6.77773183084737, -128.779455527716, 5.42224205397643
nuclear repulsion = -116.579481642892
number of shells = 10
number of NR pGTOs = 140
number of NR cGTOs = 26
basis = gth-szv
ecp = {}
CPU time:         1.21
Discarded 6 diffused primitive functions, 0 contracted functions
lattice vectors  a1 [6.028226337, 0.000000000, 0.000000000]
                 a2 [-3.014113169, 5.220597148, 0.000000000]
                 a3 [0.000000000, 0.000000000, 9.807678586]
dimension = 3
low_dim_ft_type = None
Cell volume = 308.657
exp_to_discard = 0.1
rcut = 93 (nimgs = [18 18 10])
lattice sum = 20447 cells
precision = 1e-08
pseudo = gth-pade
ke_cutoff = 887.7119060369721
    = [ 83  83 133] mesh (916237 PWs)


******** <class 'pyscf.pbc.dft.krks.KRKS'> ********
method = KRKS
initial guess = minao
damping factor = 0
level_shift factor = 0
DIIS = <class 'pyscf.scf.diis.CDIIS'>
diis_start_cycle = 1
diis_space = 8
SCF conv_tol = 1e-07
SCF conv_tol_grad = None
SCF max_cycles = 50
direct_scf = True
direct_scf_tol = 1e-13
chkfile to save SCF result = /tmp/tmp43aznth4
max_memory 165540 MB (current use 106 MB)


******** PBC SCF flags ********
N kpts = 8
kpts = [[0.         0.         0.        ]
 [0.         0.         0.3203197 ]
 [0.         0.60176883 0.        ]
 [0.         0.60176883 0.3203197 ]
 [0.5211471  0.30088442 0.        ]
 [0.5211471  0.30088442 0.3203197 ]
 [0.5211471  0.90265325 0.        ]
 [0.5211471  0.90265325 0.3203197 ]]
Exchange divergence treatment (exxdiv) = ewald
Ewald components = 8.76453321006536e-07, -0.162059015555054, 0.068912395876923
    madelung (= occupied orbital energy shift) = 0.18629148644961965
    Total energy shift due to Ewald probe charge = -1/2 * Nelec*madelung = -3.35324675609
DF object = <pyscf.pbc.df.df.GDF object at 0x7fb2aa68ce10>
XC functionals = pbe
small_rho_cutoff = 1e-07
radial grids: 
    Treutler-Ahlrichs [JCP 102, 346 (1995); DOI:10.1063/1.469408] (M4) radial grids
    
becke partition: Becke, JCP 88, 2547 (1988); DOI:10.1063/1.454033
pruning grids: <function nwchem_prune at 0x7fb2ab1a85e0>
grids dens level: 3
symmetrized grids: False
atomic radii adjust function: <function treutler_atomic_radii_adjust at 0x7fb2ab1a8ae0>
Set gradient conv threshold to 0.000316228
kmesh for bvk-cell = [2 2 2]


******** <class 'pyscf.pbc.df.rsdf_builder._RSNucBuilder'> ********
mesh = [11 11 15] (1815 PWs)
ke_cutoff = 10.055261543215941
omega = 0.4021400384492481
exclude_d_aux = False
exclude_dd_block = True
j2c_eig_always = False
has_long_range = True
Set _RSNucBuilder.direct_scf_tol to 7.81e-15
rs_cell.nbas 10 nao 26
No. smooth_bas in rs_cell 0
sup-mol nbas = 2778 cGTO = 7200 pGTO = 33579
sup-mol-ft nbas = 2760 cGTO = 7110 pGTO = 33159
    CPU time for int3c kernel initialization      0.29 sec, wall time      0.03 sec
Set ft_ao cutoff to 4.30028e-11
kmesh for bvk-cell = [2 2 2]
sup-mol nbas = 1997 cGTO = 5189 pGTO = 24095
    CPU time for int3c kernel initialization      0.15 sec, wall time      0.01 sec
    CPU time for int3c kernel initialization      0.18 sec, wall time      0.02 sec
    CPU time for get_pp     12.46 sec, wall time      1.25 sec
atom Ga rad-grids = 90, ang-grids = [ 50  50  50  50  50  50  50  50  50  50  50  50  50  50  50  50  50  50
  50  50  50  50  50  50  50  50  50  50  50  86  86  86  86  86  86  86
  86  86  86  86  86  86  86  86  86 350 350 350 350 350 350 350 350 350
 350 350 434 434 434 434 434 434 434 434 434 434 434 434 434 434 434 434
 434 434 434 434 434 350 350 350 350 350 350 350 350 350 350 350 350 350]
atom N rad-grids = 75, ang-grids = [ 50  50  50  50  50  50  50  50  50  50  50  50  50  50  50  50  50  50
  50  50  50  50  50  86  86  86  86  86  86  86  86  86 266 266 266 266
 266 266 266 302 302 302 302 302 302 302 302 302 302 302 302 302 302 302
 302 302 302 302 266 266 266 266 266 266 266 266 266 266 266 266 266 266
 266 266 266]
tot grids = 69179
cell vol = 308.656876  sum(weights) = 308.656992
Drop grids 20233
    CPU time for setting up grids     24.36 sec, wall time      2.45 sec
nelec by numeric integration = 35.99984998806158
    CPU time for vxc     33.72 sec, wall time      3.39 sec


******** <class 'pyscf.pbc.df.df.GDF'> ********
auxbasis = None
exp_to_discard = 0.1
_cderi_to_save = /tmp/tmp6b7pf8sr
len(kpts) = 8
Even tempered Gaussians are generated as DF auxbasis for  Ga N
  ETB auxbasis for Ga  [[0, [7.4303029432, 1]], [0, [3.7151514716, 1]], [0, [1.8575757358, 1]], [0, [0.9287878679, 1]], [0, [0.46439393395, 1]], [1, [7.4303029432, 1]], [1, [3.7151514716, 1]], [1, [1.8575757358, 1]], [1, [0.9287878679, 1]], [1, [0.46439393395, 1]], [2, [7.4303029432, 1]], [2, [3.7151514716, 1]], [2, [1.8575757358, 1]], [2, [0.9287878679, 1]], [2, [0.46439393395, 1]], [3, [7.4303029432, 1]], [3, [3.7151514716, 1]], [3, [1.8575757358, 1]], [3, [0.9287878679, 1]], [3, [0.46439393395, 1]], [4, [7.4303029432, 1]], [4, [3.7151514716, 1]], [4, [1.8575757358, 1]], [4, [0.9287878679, 1]], [4, [0.46439393395, 1]]]
  ETB auxbasis for N  [[0, [10.4206262528, 1]], [0, [5.2103131264, 1]], [0, [2.6051565632, 1]], [0, [1.3025782816, 1]], [0, [0.6512891408, 1]], [0, [0.3256445704, 1]], [1, [10.4206262528, 1]], [1, [5.2103131264, 1]], [1, [2.6051565632, 1]], [1, [1.3025782816, 1]], [1, [0.6512891408, 1]], [1, [0.3256445704, 1]], [2, [10.4206262528, 1]], [2, [5.2103131264, 1]], [2, [2.6051565632, 1]], [2, [1.3025782816, 1]], [2, [0.6512891408, 1]], [2, [0.3256445704, 1]]]
num shells = 86, num cGTOs = 358
Drop 0 primitive fitting functions
make aux basis, num shells = 86, num cGTOs = 358
auxcell.rcut 12.042448909537999
kmesh for bvk-cell = [2 2 2]


******** <class 'pyscf.pbc.df.rsdf_builder._RSGDFBuilder'> ********
mesh = [11 11 15] (1815 PWs)
ke_cutoff = 10.055261543215941
omega = 0.3840305103238427
exclude_d_aux = True
exclude_dd_block = True
j2c_eig_always = False
has_long_range = True
Set _RSGDFBuilder.direct_scf_tol to 7.81e-15
rs_cell.nbas 10 nao 26
No. smooth_bas in rs_cell 0
rs_cell.nbas 86 nao 358
No. smooth_bas in rs_cell 0
sup-mol nbas = 3428 cGTO = 8898 pGTO = 41631
sup-mol-ft nbas = 2760 cGTO = 7110 pGTO = 33159
    CPU time for int3c kernel initialization      0.27 sec, wall time      0.03 sec
    CPU time for pass1: real space int3c2e     49.32 sec, wall time      5.46 sec
Set ft_ao cutoff to 4.30028e-11
Set 2c2e integrals precision 1e-12, mesh [11 11 15]
    CPU time for int2c2e      1.31 sec, wall time      0.13 sec
    CPU time for pass2: AFT int3c2e     11.60 sec, wall time      1.16 sec
    CPU time for get_j      1.62 sec, wall time      0.16 sec
    CPU time for vj and vk     62.99 sec, wall time      6.83 sec
Ewald components = 6.77773183084737, -128.779455527716, 5.42224205397643
E1 = (-88.1277678651672+3.943380601198181e-17j)  Ecoul = 61.46755042598597  Exc = -25.541321915404147
init E= -168.781020997477
cond(S) = [7.39940068 6.35510979 7.03288257 6.30438812 7.03288257 6.30438812
 7.03288257 6.30438812]
    CPU time for initialize scf    116.44 sec, wall time     12.21 sec
HOMO = 0.24768373203  LUMO = 0.614745727622
     k-point                  mo_energy
   0 ( 0.000  0.000  0.000)   [-0.30528447 -0.26497659 -0.04026503 -0.0402156  -0.04020664 -0.03480243
 -0.03479864 -0.01611254 -0.01608761 -0.01228556 -0.0122538  -0.00041893
  0.05633785  0.21822576  0.21823157  0.24635344  0.2476815   0.24768373] [0.61474573 0.65252503 0.80660879 0.80661112 0.82279517 0.84909579
 0.84911188 0.86347916]
   1 ( 0.000  0.000  0.500)   [-0.2860601  -0.28605979 -0.03801553 -0.0380153  -0.03800858 -0.03800815
 -0.03479867 -0.03479829 -0.01386794 -0.01386771 -0.01384031 -0.01384013
  0.15750957  0.15751012  0.23294753  0.23294761  0.23295155  0.23295165] [0.67519334 0.67519419 0.79205701 0.79205761 0.82590321 0.82590556
 0.82591138 0.82591183]
   2 ( 0.000  0.500  0.000)   [-0.26635593 -0.2542381  -0.03799167 -0.03402349 -0.02436106 -0.02316321
 -0.02147581 -0.01741244 -0.01286591 -0.01121055 -0.00099829 -0.00084902
  0.07923606  0.11169341  0.1368935   0.16820841  0.19611772  0.21869222] [0.68008045 0.71910184 0.75317175 0.82518693 0.83936659 0.84306212
 0.89616279 0.89984525]
   3 ( 0.000  0.500  0.500)   [-0.25946665 -0.2594666  -0.03596289 -0.03596233 -0.02803982 -0.02803955
 -0.02013465 -0.02013436 -0.01239462 -0.01239426  0.00027475  0.0002751
  0.07776109  0.07776189  0.19310647  0.19310676  0.19549061  0.1954909 ] [0.65962516 0.65962873 0.79786644 0.79786812 0.87078479 0.87078601
 0.87510195 0.87510302]
   4 ( 0.500  0.000  0.000)   [-0.26635689 -0.25424392 -0.03801306 -0.03400574 -0.02435754 -0.02317449
 -0.02146738 -0.01742148 -0.01285894 -0.01119258 -0.00098477 -0.00086772
  0.07924073  0.11169923  0.13690402  0.16821458  0.1961068   0.21869764] [0.6800605  0.71906743 0.75316668 0.82518168 0.8393711  0.84306674
 0.89617102 0.89985329]
   5 ( 0.500  0.000  0.500)   [-0.25946998 -0.25946981 -0.0359765  -0.03597629 -0.02802428 -0.028024
 -0.02013983 -0.02013938 -0.01238462 -0.01238445  0.00027254  0.00027284
  0.0777661   0.07776705  0.19311244  0.1931127   0.19548999  0.19549032] [0.65960609 0.65960724 0.79785909 0.79785982 0.87079176 0.87079227
 0.87510321 0.8751038 ]
   6 ( 0.500  0.500  0.000)   [-0.26635676 -0.25424389 -0.03801301 -0.03400594 -0.02435745 -0.02317442
 -0.02146753 -0.01742139 -0.01285897 -0.01119264 -0.00098471 -0.00086769
  0.07924053  0.11169934  0.13690417  0.16821421  0.19610652  0.21869754] [0.68005966 0.71906724 0.75316686 0.82518201 0.8393714  0.8430663
 0.89617047 0.89985341]
   7 ( 0.500  0.500  0.500)   [-0.25946984 -0.25946979 -0.03597634 -0.03597628 -0.02802441 -0.02802425
 -0.02013968 -0.02013945 -0.01238465 -0.01238449  0.00027261  0.00027291
  0.07776612  0.07776676  0.19311221  0.19311245  0.19549013  0.19549034] [0.65960522 0.65960738 0.79785874 0.79786002 0.87079138 0.87079167
 0.87510353 0.87510418]
nelec by numeric integration = 36.000078803354945
    CPU time for vxc      4.88 sec, wall time      0.49 sec
    CPU time for get_j      2.02 sec, wall time      0.20 sec
    CPU time for vj and vk      2.02 sec, wall time      0.20 sec
Ewald components = 6.77773183084737, -128.779455527716, 5.42224205397643
E1 = (-87.8304141515167+3.678168041726276e-17j)  Ecoul = 61.78215676109572  Exc = -26.390785939794377
cycle= 1 E= -169.018524973107  delta_E= -0.238  |g|= 3.19  |ddm|= 10.5
    CPU time for cycle= 1      7.05 sec, wall time      0.71 sec
HOMO = 0.618611187155  LUMO = 0.747891657656
     k-point                  mo_energy
   0 ( 0.000  0.000  0.000)   [-0.23465927 -0.23102179 -0.23095907 -0.23095312 -0.23021404 -0.23021098
 -0.22772912 -0.2277     -0.22476756 -0.22473534 -0.09157871  0.05481195
  0.17398916  0.51296781  0.51297778  0.60829445  0.61861083  0.61861119] [0.75367636 0.79181095 0.79275895 0.79276205 0.82627751 0.93572677
 0.93573772 1.17228534]
   1 ( 0.000  0.000  0.500)   [-0.23266585 -0.23266539 -0.23092753 -0.23092703 -0.23092162 -0.23092106
 -0.2259193  -0.22591911 -0.22589007 -0.22588997 -0.04631644 -0.04631582
  0.37330755  0.3733082   0.55537503  0.55537568  0.55538067  0.55538109] [0.77153517 0.77153597 0.87167822 0.87167961 0.87168564 0.87168604
 1.02114411 1.02114441]
   2 ( 0.000  0.500  0.000)   [-0.23673237 -0.23444546 -0.23069321 -0.2299913  -0.22802435 -0.22766296
 -0.22570137 -0.22557141 -0.22498865 -0.22438589  0.03949419  0.0910203
  0.2168749   0.27346961  0.31251164  0.39885997  0.43251483  0.5168968 ] [0.7896904  0.81694726 0.92278248 0.92596146 1.04549256 1.06580578
 1.09630652 1.13424911]
   3 ( 0.000  0.500  0.500)   [-0.23530671 -0.23530593 -0.2309712  -0.23097079 -0.22759125 -0.22759105
 -0.22517909 -0.22517891 -0.22498818 -0.22498755  0.06955616  0.06955701
  0.19561952  0.19562063  0.44833516  0.44833573  0.45956393  0.45956412] [0.7479116  0.74791395 0.94238914 0.94238968 1.01928015 1.01928073
 1.12741278 1.1274131 ]
   4 ( 0.500  0.000  0.000)   [-0.23675367 -0.23444862 -0.23071659 -0.22996805 -0.22802389 -0.22768555
 -0.22569655 -0.2255531  -0.22498563 -0.22436444  0.03949429  0.09100673
  0.21688162  0.27347404  0.3125299   0.39887083  0.43250212  0.51690217] [0.7896544  0.81693659 0.92278618 0.92596678 1.04549176 1.06580517
 1.09631002 1.13424921]
   5 ( 0.500  0.000  0.500)   [-0.23532128 -0.23532126 -0.23098512 -0.23098486 -0.22757014 -0.22756979
 -0.22517684 -0.22517631 -0.22498231 -0.22498178  0.06955088  0.06955111
  0.19562579  0.1956269   0.44834377  0.44834407  0.45956692  0.45956756] [0.74789227 0.74789306 0.94238628 0.94238702 1.01928377 1.019284
 1.12741105 1.1274114 ]
   6 ( 0.500  0.500  0.000)   [-0.23675358 -0.23444847 -0.23071653 -0.22996823 -0.22802389 -0.22768544
 -0.22569666 -0.22555307 -0.22498566 -0.22436454  0.03949446  0.09100661
  0.21688159  0.27347422  0.3125299   0.39887017  0.43250145  0.51690197] [0.78965477 0.8169363  0.92278591 0.92596673 1.04549179 1.06580526
 1.09630982 1.13424934]
   7 ( 0.500  0.500  0.500)   [-0.23532128 -0.23532103 -0.23098501 -0.23098484 -0.22757018 -0.22757009
 -0.22517674 -0.22517633 -0.22498232 -0.22498184  0.06955097  0.06955129
  0.19562557  0.19562666  0.4483433   0.4483436   0.4595672   0.45956738] [0.74789166 0.74789332 0.94238622 0.94238708 1.01928359 1.01928377
 1.12741125 1.12741152]
nelec by numeric integration = 36.00019588786887
    CPU time for vxc      4.97 sec, wall time      0.50 sec
    CPU time for get_j      2.05 sec, wall time      0.21 sec
    CPU time for vj and vk      2.06 sec, wall time      0.21 sec
Ewald components = 6.77773183084737, -128.779455527716, 5.42224205397643
E1 = (-87.54475490620793+4.248349261492522e-17j)  Ecoul = 60.922504717003456  Exc = -25.164196226751667
cycle= 2 E= -168.365928058848  delta_E= 0.653  |g|= 5.28  |ddm|= 10.6
    CPU time for cycle= 2      7.22 sec, wall time      0.72 sec
HOMO = 0.41921541359  LUMO = 0.679392418043
     k-point                  mo_energy
   0 ( 0.000  0.000  0.000)   [-0.19017079 -0.17175526 -0.13861952 -0.1380186  -0.13800922 -0.13597021
 -0.13596662 -0.13006629 -0.1300411  -0.12677157 -0.12674024 -0.05531094
  0.12506179  0.36889818  0.3689052   0.41640271  0.41921472  0.41921541] [0.67939242 0.68131006 0.78998429 0.78998541 0.80985843 0.86575123
 0.86576628 0.98823127]
   1 ( 0.000  0.000  0.500)   [-0.17504123 -0.17504084 -0.13735423 -0.13735395 -0.13734713 -0.1373467
 -0.12810054 -0.12810029 -0.12807294 -0.12807282 -0.11789736 -0.11789692
  0.26303449  0.26303518  0.39264575  0.39264608  0.39264952  0.39264982] [0.71046321 0.71046403 0.82679918 0.82680122 0.82680839 0.82680881
 0.87010228 0.87010249]
   2 ( 0.000  0.500  0.000)   [-0.17174914 -0.16965497 -0.13652835 -0.13575472 -0.1323967  -0.13118722
 -0.12938879 -0.12916859 -0.12693465 -0.12597105 -0.06061084 -0.03258254
  0.14976356  0.19578819  0.23620258  0.29427507  0.32342862  0.37080292] [0.72250029 0.73907596 0.82197925 0.85690128 0.90407007 0.94505439
 0.95360112 0.96279886]
   3 ( 0.000  0.500  0.500)   [-0.16906019 -0.1690597  -0.13656583 -0.13656535 -0.13240116 -0.13240083
 -0.12872039 -0.12872012 -0.12675068 -0.12675027 -0.04772999 -0.04772962
  0.14256125  0.14256231  0.32893178  0.32893236  0.33302991  0.33303032] [0.68686135 0.68686424 0.84454436 0.84454519 0.9137542  0.91375518
 0.96608577 0.96608633]
   4 ( 0.500  0.000  0.000)   [-0.17174769 -0.16967175 -0.13655368 -0.13573346 -0.13240168 -0.1312022
 -0.12938021 -0.12915746 -0.1269302  -0.12595357 -0.06060749 -0.03259703
  0.14977208  0.19579803  0.2362174   0.29428353  0.32341588  0.37080729] [0.7224817  0.73903589 0.82197912 0.85690639 0.90407016 0.94506027
 0.95360196 0.96280528]
   5 ( 0.500  0.000  0.500)   [-0.16906879 -0.16906873 -0.13657989 -0.13657962 -0.13238256 -0.13238228
 -0.12872125 -0.12872077 -0.12674323 -0.126743   -0.04773586 -0.04773564
  0.14256978  0.1425708   0.32893845  0.32893887  0.33303199  0.33303256] [0.68683939 0.68684029 0.84453992 0.84454061 0.91376025 0.91376075
 0.96608523 0.96608555]
   6 ( 0.500  0.500  0.000)   [-0.17174754 -0.16967167 -0.13655363 -0.13573366 -0.13240164 -0.13120212
 -0.12938035 -0.1291574  -0.12693023 -0.12595364 -0.06060736 -0.03259705
  0.14977193  0.19579817  0.23621747  0.29428302  0.32341543  0.37080716] [0.7224811  0.7390361  0.82197916 0.85690601 0.90407035 0.94506039
 0.95360206 0.96280488]
   7 ( 0.500  0.500  0.500)   [-0.16906874 -0.16906853 -0.13657976 -0.13657962 -0.13238268 -0.13238252
 -0.12872113 -0.1287208  -0.12674325 -0.12674305 -0.04773577 -0.04773557
  0.14256968  0.14257053  0.32893823  0.3289384   0.33303218  0.33303253] [0.6868386  0.68684052 0.84453978 0.84454074 0.91375997 0.91376029
 0.96608549 0.96608577]
nelec by numeric integration = 36.0001372066191
    CPU time for vxc      4.99 sec, wall time      0.50 sec
    CPU time for get_j      2.00 sec, wall time      0.20 sec
    CPU time for vj and vk      2.00 sec, wall time      0.20 sec
Ewald components = 6.77773183084737, -128.779455527716, 5.42224205397643
E1 = (-87.92797058646948+3.9365788659459124e-17j)  Ecoul = 60.847966949828844  Exc = -25.806188105824976
cycle= 3 E= -169.465673385357  delta_E= -1.1  |g|= 0.0771  |ddm|= 6.49
    CPU time for cycle= 3      7.17 sec, wall time      0.72 sec
HOMO = 0.411842850636  LUMO = 0.672405100316
     k-point                  mo_energy
   0 ( 0.000  0.000  0.000)   [-0.19540502 -0.17589332 -0.14174832 -0.14134867 -0.14133949 -0.13933379
 -0.13933024 -0.13328872 -0.13326335 -0.12994464 -0.12991327 -0.06011399
  0.12008783  0.36230966  0.36231621  0.40844339  0.41184229  0.41184285] [0.6724051  0.67539951 0.78500027 0.7850009  0.80504447 0.85955227
 0.85956649 0.97912342]
   1 ( 0.000  0.000  0.500)   [-0.17974287 -0.17974246 -0.14069834 -0.14069797 -0.14069139 -0.14069086
 -0.13130154 -0.13130135 -0.1312738  -0.13127376 -0.12170382 -0.12170336
  0.25682857  0.25682907  0.38572582  0.38572612  0.38572923  0.38572959] [0.70466759 0.70466871 0.82116415 0.82116621 0.82117238 0.82117284
 0.86224814 0.86224838]
   2 ( 0.000  0.500  0.000)   [-0.17596916 -0.17366914 -0.13978108 -0.13895978 -0.13551811 -0.13444123
 -0.13267061 -0.13230784 -0.13025948 -0.1291977  -0.06550927 -0.03789032
  0.1448048   0.19047566  0.23061675  0.28851677  0.31713849  0.36417208] [0.71561473 0.73318627 0.81505692 0.85073666 0.89635141 0.93826455
 0.94505173 0.95500977]
   3 ( 0.000  0.500  0.500)   [-0.17315571 -0.17315534 -0.13980743 -0.1398069  -0.13561806 -0.13561783
 -0.13186651 -0.13186629 -0.13005391 -0.13005338 -0.05287492 -0.05287429
  0.13767464  0.13767559  0.32282716  0.32282744  0.32646336  0.32646361] [0.68089716 0.68090032 0.83793137 0.83793259 0.90668901 0.90668986
 0.9579213  0.95792209]
   4 ( 0.500  0.000  0.000)   [-0.17596767 -0.17368575 -0.13980633 -0.13893858 -0.13552317 -0.13445535
 -0.13266245 -0.13229753 -0.13025499 -0.12917978 -0.065506   -0.03790479
  0.1448135   0.19048543  0.23063101  0.28852466  0.31712616  0.36417633] [0.71559573 0.73314663 0.81505745 0.8507406  0.89635155 0.93826997
 0.94505265 0.95501539]
   5 ( 0.500  0.000  0.500)   [-0.17316423 -0.17316413 -0.13982141 -0.13982119 -0.13559974 -0.13559936
 -0.13186744 -0.13186693 -0.13004625 -0.13004592 -0.05288081 -0.05288055
  0.13768305  0.13768422  0.32283346  0.32283355  0.32646549  0.32646578] [0.68087542 0.68087638 0.83792694 0.83792785 0.90669412 0.90669448
 0.9579209  0.95792156]
   6 ( 0.500  0.500  0.000)   [-0.17596752 -0.17368567 -0.13980628 -0.13893878 -0.13552314 -0.13445527
 -0.13266259 -0.13229747 -0.13025501 -0.12917985 -0.06550587 -0.03790481
  0.14481335  0.19048557  0.23063108  0.28852415  0.31712571  0.36417619] [0.71559512 0.73314683 0.8150575  0.8507402  0.89635175 0.93827009
 0.94505276 0.95501498]
   7 ( 0.500  0.500  0.500)   [-0.17316409 -0.17316403 -0.13982129 -0.13982118 -0.13559979 -0.13559968
 -0.13186731 -0.13186694 -0.13004627 -0.13004596 -0.0528808  -0.05288039
  0.13768302  0.13768389  0.32283287  0.32283344  0.32646567  0.32646578] [0.68087458 0.68087665 0.83792673 0.83792804 0.90669382 0.90669402
 0.95792114 0.9579218 ]
nelec by numeric integration = 36.000136101684646
    CPU time for vxc      4.95 sec, wall time      0.50 sec
    CPU time for get_j      1.99 sec, wall time      0.20 sec
    CPU time for vj and vk      1.99 sec, wall time      0.20 sec
Ewald components = 6.77773183084737, -128.779455527716, 5.42224205397643
E1 = (-87.9292982441586+3.9318586697480836e-17j)  Ecoul = 60.86061568774831  Exc = -25.817750774443763
cycle= 4 E= -169.465914973746  delta_E= -0.000242  |g|= 0.00243  |ddm|= 0.101
    CPU time for cycle= 4      7.13 sec, wall time      0.71 sec
HOMO = 0.411763297508  LUMO = 0.672394309728
     k-point                  mo_energy
   0 ( 0.000  0.000  0.000)   [-0.19543844 -0.17587037 -0.14169005 -0.1412709  -0.14126171 -0.13925002
 -0.13924646 -0.13321671 -0.13319136 -0.12987672 -0.12984535 -0.06012672
  0.12007178  0.36224455  0.36225112  0.40839148  0.41176271  0.4117633 ] [0.67239431 0.67541226 0.78504213 0.78504277 0.80505745 0.85957353
 0.85958771 0.97908076]
   1 ( 0.000  0.000  0.500)   [-0.17974666 -0.1797461  -0.14061803 -0.14061772 -0.14061106 -0.1406106
 -0.13123115 -0.1312309  -0.13120343 -0.13120331 -0.12167968 -0.12167925
  0.25679552  0.25679639  0.38565473  0.38565551  0.38565821  0.38565895] [0.70468105 0.70468168 0.82119415 0.82119636 0.82120241 0.8212029
 0.86221763 0.86221807]
   2 ( 0.000  0.500  0.000)   [-0.17594843 -0.17363763 -0.13971037 -0.13889466 -0.13545649 -0.13436871
 -0.13259082 -0.13224126 -0.13017427 -0.12912431 -0.06550226 -0.03790512
  0.14479198  0.19046806  0.23059014  0.28847297  0.3170844   0.36411511] [0.71568207 0.73322841 0.81500844 0.85075243 0.89630781 0.93823529
 0.94501504 0.95500036]
   3 ( 0.000  0.500  0.500)   [-0.17312853 -0.17312789 -0.13973744 -0.13973697 -0.13554898 -0.13554866
 -0.13180102 -0.13180075 -0.12997133 -0.1299709  -0.05288092 -0.05288073
  0.13766601  0.13766719  0.32277847  0.32277942  0.3264212   0.32642181] [0.68090787 0.68091064 0.83792924 0.83792991 0.90668993 0.90669119
 0.95789398 0.95789454]
   4 ( 0.500  0.000  0.000)   [-0.17594695 -0.17365422 -0.13973563 -0.13887346 -0.13546156 -0.13438291
 -0.13258263 -0.13223088 -0.13016977 -0.12910643 -0.06549893 -0.0379196
  0.1448006   0.19047777  0.23060445  0.28848087  0.31707204  0.36411937] [0.71566315 0.73318887 0.81500893 0.85075636 0.89630795 0.93824071
 0.94501592 0.95500597]
   5 ( 0.500  0.000  0.500)   [-0.17313697 -0.17313674 -0.13975149 -0.13975122 -0.13553056 -0.13553026
 -0.13180191 -0.13180143 -0.12996369 -0.12996345 -0.05288708 -0.05288663
  0.13767462  0.13767552  0.32278475  0.32278557  0.32642326  0.32642407] [0.68088603 0.68088691 0.83792468 0.83792539 0.90669504 0.90669579
 0.95789363 0.95789387]
   6 ( 0.500  0.500  0.000)   [-0.1759468  -0.17365415 -0.13973557 -0.13887366 -0.13546153 -0.13438283
 -0.13258277 -0.13223082 -0.1301698  -0.1291065  -0.0654988  -0.03791961
  0.14480045  0.19047791  0.23060452  0.28848035  0.31707159  0.36411924] [0.71566254 0.73318906 0.81500899 0.85075596 0.89630815 0.93824083
 0.94501603 0.95500556]
   7 ( 0.500  0.500  0.500)   [-0.17313693 -0.17313654 -0.13975137 -0.13975122 -0.13553067 -0.13553052
 -0.13180178 -0.13180145 -0.12996371 -0.1299635  -0.05288693 -0.05288662
  0.13767446  0.13767531  0.32278465  0.32278497  0.32642347  0.32642404] [0.68088528 0.68088709 0.83792462 0.83792544 0.90669474 0.90669531
 0.95789393 0.95789405]
nelec by numeric integration = 36.000136076428475
    CPU time for vxc      5.02 sec, wall time      0.50 sec
    CPU time for get_j      2.03 sec, wall time      0.20 sec
    CPU time for vj and vk      2.03 sec, wall time      0.20 sec
Ewald components = 6.77773183084737, -128.779455527716, 5.42224205397643
E1 = (-87.92932748981114+3.9317002360724315e-17j)  Ecoul = 60.860939712684406  Exc = -25.818045815167178
cycle= 5 E= -169.465915235186  delta_E= -2.61e-07  |g|= 0.000342  |ddm|= 0.00419
    CPU time for cycle= 5      7.25 sec, wall time      0.73 sec
HOMO = 0.411753081347  LUMO = 0.672390725138
     k-point                  mo_energy
   0 ( 0.000  0.000  0.000)   [-0.19544474 -0.17586993 -0.14168206 -0.14126297 -0.14125377 -0.13924205
 -0.13923849 -0.13320821 -0.13318285 -0.1298682  -0.12983683 -0.06012777
  0.12006972  0.36223664  0.3622432   0.40838001  0.4117525   0.41175308] [0.67239073 0.67541128 0.78504388 0.78504452 0.80506092 0.85957266
 0.85958685 0.97907444]
   1 ( 0.000  0.000  0.500)   [-0.17975002 -0.17974937 -0.14061006 -0.14060978 -0.1406031  -0.14060266
 -0.13122263 -0.1312224  -0.13119491 -0.13119481 -0.1216753  -0.12167483
  0.25678983  0.2567903   0.38564577  0.38564668  0.3856492   0.38565016] [0.70467993 0.70468139 0.82119465 0.82119652 0.82120275 0.82120321
 0.86221339 0.86221385]
   2 ( 0.000  0.500  0.000)   [-0.17594715 -0.17363527 -0.13970245 -0.1388864  -0.13544798 -0.13436025
 -0.1325825  -0.13223283 -0.1301658  -0.12911579 -0.06550377 -0.03790936
  0.14478881  0.19046232  0.23058597  0.28846668  0.31708032  0.36410597] [0.71567062 0.73322474 0.81500978 0.85075269 0.89630658 0.9382361
 0.9450084  0.9549967 ]
   3 ( 0.000  0.500  0.500)   [-0.17312626 -0.17312604 -0.13972934 -0.13972886 -0.13554068 -0.13554038
 -0.13179262 -0.13179238 -0.12996285 -0.12996241 -0.05288439 -0.05288338
  0.1376634   0.13766425  0.32277124  0.32277182  0.32641356  0.32641392] [0.68090673 0.68091015 0.83792676 0.83792827 0.90668831 0.90668885
 0.95788829 0.95788945]
   4 ( 0.500  0.000  0.000)   [-0.17594567 -0.17365185 -0.13972771 -0.13886519 -0.13545305 -0.13437446
 -0.13257431 -0.13222245 -0.13016131 -0.1290979  -0.06550044 -0.03792384
  0.14479744  0.19047204  0.23060027  0.28847457  0.31706796  0.36411023] [0.7156517  0.73318518 0.81501028 0.85075662 0.89630673 0.93824152
 0.94500929 0.9550023 ]
   5 ( 0.500  0.000  0.500)   [-0.17313497 -0.17313461 -0.13974338 -0.13974312 -0.13552227 -0.13552197
 -0.13179353 -0.13179304 -0.12995521 -0.12995496 -0.05289021 -0.05288963
  0.1376716   0.13767299  0.32277744  0.32277804  0.32641588  0.32641592] [0.6808851  0.6808862  0.83792242 0.83792352 0.90669334 0.90669353
 0.95788782 0.95788892]
   6 ( 0.500  0.500  0.000)   [-0.17594552 -0.17365178 -0.13972766 -0.13886539 -0.13545302 -0.13437437
 -0.13257445 -0.13222239 -0.13016134 -0.12909797 -0.06550031 -0.03792385
  0.14479729  0.19047219  0.23060034  0.28847406  0.31706751  0.36411009] [0.71565109 0.73318538 0.81501033 0.85075622 0.89630693 0.93824164
 0.9450094  0.9550019 ]
   7 ( 0.500  0.500  0.500)   [-0.17313477 -0.17313458 -0.13974326 -0.13974312 -0.13552237 -0.13552224
 -0.1317934  -0.13179305 -0.12995523 -0.129955   -0.05289022 -0.05288946
  0.13767162  0.13767261  0.32277684  0.32277795  0.32641585  0.32641612] [0.68088422 0.68088651 0.83792217 0.83792374 0.90669292 0.90669318
 0.95788806 0.95788917]
nelec by numeric integration = 36.00013607140418
    CPU time for vxc      4.96 sec, wall time      0.50 sec
    CPU time for get_j      2.03 sec, wall time      0.20 sec
    CPU time for vj and vk      2.03 sec, wall time      0.20 sec
Ewald components = 6.77773183084737, -128.779455527716, 5.42224205397643
E1 = (-87.92933245261803+3.9316912926153334e-17j)  Ecoul = 60.8609864867503  Exc = -25.818087632260788
cycle= 6 E= -169.46591524102  delta_E= -5.83e-09  |g|= 2.75e-05  |ddm|= 0.000625
    CPU time for cycle= 6      7.19 sec, wall time      0.72 sec
HOMO = 0.411750189287  LUMO = 0.672389415012
     k-point                  mo_energy
   0 ( 0.000  0.000  0.000)   [-0.1954464  -0.17587001 -0.14168078 -0.14126181 -0.14125262 -0.13924089
 -0.13923734 -0.13320689 -0.13318153 -0.12986684 -0.12983547 -0.06012865
  0.12006896  0.36223426  0.36224083  0.40837722  0.41174961  0.41175019] [0.67238942 0.67541026 0.78504393 0.78504457 0.80506089 0.85957202
 0.85958621 0.97907229]
   1 ( 0.000  0.000  0.500)   [-0.17975122 -0.17974995 -0.14060898 -0.14060855 -0.14060202 -0.14060143
 -0.13122128 -0.13122107 -0.13119355 -0.1311935  -0.121675   -0.12167442
  0.25678772  0.25678916  0.38564258  0.38564468  0.38564606  0.38564812] [0.7046795  0.70467988 0.82119396 0.82119654 0.82120226 0.82120304
 0.86221156 0.86221263]
   2 ( 0.000  0.500  0.000)   [-0.17594735 -0.17363516 -0.13970122 -0.13888514 -0.13544664 -0.13435898
 -0.13258127 -0.1322315  -0.13016456 -0.12911446 -0.06550446 -0.03791058
  0.14478762  0.19046094  0.23058467  0.28846482  0.31707846  0.36410355] [0.71566953 0.73322403 0.81500868 0.85075214 0.89630515 0.93823477
 0.9450061  0.9549952 ]
   3 ( 0.000  0.500  0.500)   [-0.17312673 -0.17312559 -0.13972813 -0.13972759 -0.13553938 -0.13553915
 -0.13179129 -0.13179105 -0.12996162 -0.12996109 -0.05288527 -0.0528845
  0.13766199  0.13766357  0.32276844  0.32277049  0.32641105  0.32641228] [0.68090664 0.68090888 0.83792638 0.83792671 0.90668653 0.90668846
 0.9578863  0.95788752]
   4 ( 0.500  0.000  0.000)   [-0.17594587 -0.17365175 -0.13972648 -0.13886393 -0.13545171 -0.13437318
 -0.13257308 -0.13222112 -0.13016006 -0.12909657 -0.06550113 -0.03792506
  0.14479626  0.19047066  0.23059897  0.28847272  0.3170661   0.36410781] [0.71565061 0.73318447 0.81500918 0.85075606 0.8963053  0.9382402
 0.94500698 0.95500081]
   5 ( 0.500  0.000  0.500)   [-0.17313517 -0.17313444 -0.13974212 -0.1397419  -0.13552106 -0.13552065
 -0.1317922  -0.13179171 -0.12995398 -0.12995365 -0.05289153 -0.05289031
  0.13767091  0.13767159  0.3227747   0.32277665  0.3264131   0.32641455] [0.68088446 0.68088548 0.83792149 0.83792251 0.90669164 0.90669306
 0.95788588 0.95788694]
   6 ( 0.500  0.500  0.000)   [-0.17594572 -0.17365167 -0.13972643 -0.13886413 -0.13545168 -0.1343731
 -0.13257322 -0.13222106 -0.13016009 -0.12909665 -0.065501   -0.03792507
  0.14479611  0.1904708   0.23059904  0.2884722   0.31706565  0.36410767] [0.71565    0.73318467 0.81500923 0.85075567 0.8963055  0.93824032
 0.94500709 0.95500041]
   7 ( 0.500  0.500  0.500)   [-0.17313513 -0.17313424 -0.13974202 -0.13974188 -0.13552112 -0.13552097
 -0.13179207 -0.13179173 -0.129954   -0.12995369 -0.05289136 -0.05289032
  0.13767055  0.13767159  0.32277461  0.32277605  0.32641331  0.32641452] [0.68088393 0.68088544 0.83792168 0.8379223  0.90669134 0.90669258
 0.95788614 0.95788716]
nelec by numeric integration = 36.00013607051255
    CPU time for vxc      5.04 sec, wall time      0.51 sec
    CPU time for get_j      1.97 sec, wall time      0.20 sec
    CPU time for vj and vk      1.97 sec, wall time      0.20 sec
Ewald components = 6.77773183084737, -128.779455527716, 5.42224205397643
E1 = (-87.92933345441793+3.93168012532511e-17j)  Ecoul = 60.860996785073276  Exc = -25.81809692874712
Extra cycle  E= -169.465915240984  delta_E= 3.67e-11  |g|= 4.16e-05  |ddm|= 8.77e-05
    CPU time for scf_cycle    166.64 sec, wall time     17.24 sec
    CPU time for SCF    166.68 sec, wall time     17.24 sec
converged SCF energy = -169.465915240984

******** <class 'pyscf.pbc.gw.krgw_ac.KRGWAC'> ********
method = KRGWAC
GW nocc = 18, nvir = 8, nkpts = 8
frozen orbitals 0
use perturbative linearized QP eqn = False
analytic continuation method = pade
GW finite size corrections = True
nelec by numeric integration = 36.00013607051255
    CPU time for vxc      4.94 sec, wall time      0.50 sec
    CPU time for get_j      1.97 sec, wall time      0.20 sec
    CPU time for vj and vk      1.97 sec, wall time      0.20 sec
    CPU time for get_j      1.90 sec, wall time      0.19 sec
    CPU time for vj and vk      1.90 sec, wall time      0.19 sec
Rebuild CDERI for exchange integrals


******** <class 'pyscf.pbc.df.df.GDF'> ********
auxbasis = {'Ga': [[0, [7.4303029432, 1]], [0, [3.7151514716, 1]], [0, [1.8575757358, 1]], [0, [0.9287878679, 1]], [0, [0.46439393395, 1]], [1, [7.4303029432, 1]], [1, [3.7151514716, 1]], [1, [1.8575757358, 1]], [1, [0.9287878679, 1]], [1, [0.46439393395, 1]], [2, [7.4303029432, 1]], [2, [3.7151514716, 1]], [2, [1.8575757358, 1]], [2, [0.9287878679, 1]], [2, [0.46439393395, 1]], [3, [7.4303029432, 1]], [3, [3.7151514716, 1]], [3, [1.8575757358, 1]], [3, [0.9287878679, 1]], [3, [0.46439393395, 1]], [4, [7.4303029432, 1]], [4, [3.7151514716, 1]], [4, [1.8575757358, 1]], [4, [0.9287878679, 1]], [4, [0.46439393395, 1]]], 'N': [[0, [10.4206262528, 1]], [0, [5.2103131264, 1]], [0, [2.6051565632, 1]], [0, [1.3025782816, 1]], [0, [0.6512891408, 1]], [0, [0.3256445704, 1]], [1, [10.4206262528, 1]], [1, [5.2103131264, 1]], [1, [2.6051565632, 1]], [1, [1.3025782816, 1]], [1, [0.6512891408, 1]], [1, [0.3256445704, 1]], [2, [10.4206262528, 1]], [2, [5.2103131264, 1]], [2, [2.6051565632, 1]], [2, [1.3025782816, 1]], [2, [0.6512891408, 1]], [2, [0.3256445704, 1]]]}
exp_to_discard = 0.1
_cderi = /tmp/tmp6b7pf8sr  where DF integrals are loaded (readonly).
len(kpts) = 8
Even tempered Gaussians are generated as DF auxbasis for  Ga N
  ETB auxbasis for Ga  [[0, [7.4303029432, 1]], [0, [3.7151514716, 1]], [0, [1.8575757358, 1]], [0, [0.9287878679, 1]], [0, [0.46439393395, 1]], [1, [7.4303029432, 1]], [1, [3.7151514716, 1]], [1, [1.8575757358, 1]], [1, [0.9287878679, 1]], [1, [0.46439393395, 1]], [2, [7.4303029432, 1]], [2, [3.7151514716, 1]], [2, [1.8575757358, 1]], [2, [0.9287878679, 1]], [2, [0.46439393395, 1]], [3, [7.4303029432, 1]], [3, [3.7151514716, 1]], [3, [1.8575757358, 1]], [3, [0.9287878679, 1]], [3, [0.46439393395, 1]], [4, [7.4303029432, 1]], [4, [3.7151514716, 1]], [4, [1.8575757358, 1]], [4, [0.9287878679, 1]], [4, [0.46439393395, 1]]]
  ETB auxbasis for N  [[0, [10.4206262528, 1]], [0, [5.2103131264, 1]], [0, [2.6051565632, 1]], [0, [1.3025782816, 1]], [0, [0.6512891408, 1]], [0, [0.3256445704, 1]], [1, [10.4206262528, 1]], [1, [5.2103131264, 1]], [1, [2.6051565632, 1]], [1, [1.3025782816, 1]], [1, [0.6512891408, 1]], [1, [0.3256445704, 1]], [2, [10.4206262528, 1]], [2, [5.2103131264, 1]], [2, [2.6051565632, 1]], [2, [1.3025782816, 1]], [2, [0.6512891408, 1]], [2, [0.3256445704, 1]]]
num shells = 86, num cGTOs = 358
Drop 0 primitive fitting functions
make aux basis, num shells = 86, num cGTOs = 358
auxcell.rcut 12.042448909537999

WARN: File /tmp/tmp6b7pf8sr (specified by ._cderi) is overwritten by GDF initialization.

kmesh for bvk-cell = [2 2 2]


******** <class 'pyscf.pbc.df.rsdf_builder._RSGDFBuilder'> ********
mesh = [11 11 15] (1815 PWs)
ke_cutoff = 10.055261543215941
omega = 0.3840305103238427
exclude_d_aux = True
exclude_dd_block = True
j2c_eig_always = False
has_long_range = True
Set _RSGDFBuilder.direct_scf_tol to 7.81e-15
rs_cell.nbas 10 nao 26
No. smooth_bas in rs_cell 0
rs_cell.nbas 86 nao 358
No. smooth_bas in rs_cell 0
sup-mol nbas = 3428 cGTO = 8898 pGTO = 41631
sup-mol-ft nbas = 2760 cGTO = 7110 pGTO = 33159
    CPU time for int3c kernel initialization      0.30 sec, wall time      0.03 sec
    CPU time for pass1: real space int3c2e     41.80 sec, wall time      4.59 sec
Set ft_ao cutoff to 4.30028e-11
Num uniq kpts 8
Set 2c2e integrals precision 1e-12, mesh [11 11 15]
    CPU time for int2c2e      4.03 sec, wall time      0.40 sec
cond = -6.823, drop 1 bfns
cond = -14.58, drop 1 bfns
cond = -5.583, drop 1 bfns
cond = -10.39, drop 1 bfns
cond = -7.622, drop 1 bfns
cond = -1.034, drop 1 bfns
cond = -1.029, drop 1 bfns
cond = -6.688, drop 1 bfns
    CPU time for pass2: AFT int3c2e     89.63 sec, wall time      9.12 sec
Ewald components = 8.76453321006536e-07, -0.162059015555054, 0.068912395876923
    CPU time for get_k_kpts      8.54 sec, wall time      0.87 sec
    CPU time for get_j      1.80 sec, wall time      0.18 sec
    CPU time for vj and vk     10.34 sec, wall time      1.06 sec
    CPU time for get_j      1.64 sec, wall time      0.16 sec
    CPU time for vj and vk      1.64 sec, wall time      0.16 sec
atom Ga rad-grids = 120, ang-grids = [ 50  50  50  50  50  50  50  50  50  50  50  50  50  50  50  50  50  50
  50  50  50  50  50  50  50  50  50  50  50  50  50  50  50  50  50  50
  50  50  50  50  50  50  86  86  86  86  86  86  86  86  86  86  86  86
  86  86  86  86  86  86 590 590 590 590 590 590 590 590 590 590 590 590
 770 770 770 770 770 770 770 770 770 770 770 770 770 770 770 770 770 770
 770 770 770 770 770 770 590 590 590 590 590 590 590 590 590 590 590 590
 590 590 590 590 590 590 590 590 590 590 590 590]
atom N rad-grids = 105, ang-grids = [ 50  50  50  50  50  50  50  50  50  50  50  50  50  50  50  50  50  50
  50  50  50  50  50  50  50  50  50  50  50  50  50  50  50  50  50  86
  86  86  86  86  86  86  86  86  86  86 590 590 590 590 590 590 590 590
 770 770 770 770 770 770 770 770 770 770 770 770 770 770 770 770 770 770
 770 770 770 770 770 590 590 590 590 590 590 590 590 590 590 590 590 590
 590 590 590 590 590 590 590 590 590 590 590 590 590 590 590]
Read Lpq (kL: 1 / 8, ki: 0, kj: 0)
Read Lpq (kL: 1 / 8, ki: 1, kj: 1)
Read Lpq (kL: 1 / 8, ki: 2, kj: 2)
Read Lpq (kL: 1 / 8, ki: 3, kj: 3)
Read Lpq (kL: 1 / 8, ki: 4, kj: 4)
Read Lpq (kL: 1 / 8, ki: 5, kj: 5)
Read Lpq (kL: 1 / 8, ki: 6, kj: 6)
Read Lpq (kL: 1 / 8, ki: 7, kj: 7)
Read Lpq (kL: 2 / 8, ki: 0, kj: 1)
Read Lpq (kL: 2 / 8, ki: 1, kj: 0)
Read Lpq (kL: 2 / 8, ki: 2, kj: 3)
Read Lpq (kL: 2 / 8, ki: 3, kj: 2)
Read Lpq (kL: 2 / 8, ki: 4, kj: 5)
Read Lpq (kL: 2 / 8, ki: 5, kj: 4)
Read Lpq (kL: 2 / 8, ki: 6, kj: 7)
Read Lpq (kL: 2 / 8, ki: 7, kj: 6)
Read Lpq (kL: 3 / 8, ki: 0, kj: 2)
Read Lpq (kL: 3 / 8, ki: 1, kj: 3)
Read Lpq (kL: 3 / 8, ki: 2, kj: 0)
Read Lpq (kL: 3 / 8, ki: 3, kj: 1)
Read Lpq (kL: 3 / 8, ki: 4, kj: 6)
Read Lpq (kL: 3 / 8, ki: 5, kj: 7)
Read Lpq (kL: 3 / 8, ki: 6, kj: 4)
Read Lpq (kL: 3 / 8, ki: 7, kj: 5)
Read Lpq (kL: 4 / 8, ki: 0, kj: 3)
Read Lpq (kL: 4 / 8, ki: 1, kj: 2)
Read Lpq (kL: 4 / 8, ki: 2, kj: 1)
Read Lpq (kL: 4 / 8, ki: 3, kj: 0)
Read Lpq (kL: 4 / 8, ki: 4, kj: 7)
Read Lpq (kL: 4 / 8, ki: 5, kj: 6)
Read Lpq (kL: 4 / 8, ki: 6, kj: 5)
Read Lpq (kL: 4 / 8, ki: 7, kj: 4)
Read Lpq (kL: 5 / 8, ki: 0, kj: 4)
Read Lpq (kL: 5 / 8, ki: 1, kj: 5)
Read Lpq (kL: 5 / 8, ki: 2, kj: 6)
Read Lpq (kL: 5 / 8, ki: 3, kj: 7)
Read Lpq (kL: 5 / 8, ki: 4, kj: 0)
Read Lpq (kL: 5 / 8, ki: 5, kj: 1)
Read Lpq (kL: 5 / 8, ki: 6, kj: 2)
Read Lpq (kL: 5 / 8, ki: 7, kj: 3)
Read Lpq (kL: 6 / 8, ki: 0, kj: 5)
Read Lpq (kL: 6 / 8, ki: 1, kj: 4)
Read Lpq (kL: 6 / 8, ki: 2, kj: 7)
Read Lpq (kL: 6 / 8, ki: 3, kj: 6)
Read Lpq (kL: 6 / 8, ki: 4, kj: 1)
Read Lpq (kL: 6 / 8, ki: 5, kj: 0)
Read Lpq (kL: 6 / 8, ki: 6, kj: 3)
Read Lpq (kL: 6 / 8, ki: 7, kj: 2)
Read Lpq (kL: 7 / 8, ki: 0, kj: 6)
Read Lpq (kL: 7 / 8, ki: 1, kj: 7)
Read Lpq (kL: 7 / 8, ki: 2, kj: 4)
Read Lpq (kL: 7 / 8, ki: 3, kj: 5)
Read Lpq (kL: 7 / 8, ki: 4, kj: 2)
Read Lpq (kL: 7 / 8, ki: 5, kj: 3)
Read Lpq (kL: 7 / 8, ki: 6, kj: 0)
Read Lpq (kL: 7 / 8, ki: 7, kj: 1)
Read Lpq (kL: 8 / 8, ki: 0, kj: 7)
Read Lpq (kL: 8 / 8, ki: 1, kj: 6)
Read Lpq (kL: 8 / 8, ki: 2, kj: 5)
Read Lpq (kL: 8 / 8, ki: 3, kj: 4)
Read Lpq (kL: 8 / 8, ki: 4, kj: 3)
Read Lpq (kL: 8 / 8, ki: 5, kj: 2)
Read Lpq (kL: 8 / 8, ki: 6, kj: 1)
Read Lpq (kL: 8 / 8, ki: 7, kj: 0)
  GW mo_energy @ k0 =
[-0.27908835 -0.21373179 -0.14243608 -0.14301798 -0.14238795 -0.14024117
 -0.13944178 -0.13091179 -0.13164347 -0.12644318 -0.12723246 -0.09889219
  0.08250184  0.35120472  0.35133951  0.42169246  0.41679036  0.41696465
  0.76664596  0.77800089  0.87922899  0.88056353  0.90088749  0.96795599
  0.96768454  1.08871651]
  GW mo_energy @ k1 =
[-0.23897163 -0.24109019 -0.13683109 -0.14737963 -0.13626913 -0.14657538
 -0.13043215 -0.12639261 -0.13408794 -0.12411201 -0.14117764 -0.14920614
  0.24171725  0.24173162  0.38167082  0.38117111  0.38176939  0.38146188
  0.80437791  0.80419485  0.92465139  0.9225614   0.92457676  0.92278118
  0.96866466  0.96824711]
  GW mo_energy @ k2 =
[-0.21509358 -0.20433303 -0.14060438 -0.13927934 -0.13448798 -0.13354884
 -0.13128377 -0.12977832 -0.12778569 -0.12564872 -0.10360316 -0.08278951
  0.10989726  0.15998863  0.2022278   0.26201074  0.30658876  0.35529925
  0.82236923  0.83460691  0.91983183  0.95620933  1.00312129  1.04685188
  1.06463387  1.07291929]
  GW mo_energy @ k3 =
[-0.20440415 -0.20963325 -0.1375126  -0.14358055 -0.13970091 -0.13033062
 -0.13220772 -0.12757225 -0.12158116 -0.13330753 -0.09440909 -0.09715201
  0.10035605  0.10075108  0.30365334  0.30361017  0.31461551  0.31485756
  0.77737553  0.77992199  0.94632059  0.94681123  1.01975176  1.0184197
  1.06961088  1.07154029]
  GW mo_energy @ k4 =
[-0.21534134 -0.20444864 -0.14063104 -0.14001457 -0.13412132 -0.13328697
 -0.13097817 -0.13026415 -0.12758383 -0.12638324 -0.10434015 -0.08330828
  0.10898854  0.15854348  0.20152355  0.26094187  0.30495979  0.35443834
  0.82233197  0.83489308  0.91758975  0.95543154  1.00486622  1.04583771
  1.0659246   1.07322866]
  GW mo_energy @ k5 =
[-0.20458918 -0.20975544 -0.14291078 -0.13849768 -0.12966782 -0.14125817
 -0.12814497 -0.13118309 -0.12201812 -0.13294875 -0.09494338 -0.09786658
  0.09968431  0.09903121  0.30256486  0.30273507  0.31346404  0.31367127
  0.7787359   0.77867759  0.94521313  0.94651057  1.01977954  1.0175319
  1.07107073  1.07105639]
  GW mo_energy @ k6 =
[-0.21573837 -0.20495885 -0.14103163 -0.13960034 -0.13451413 -0.13364874
 -0.13107065 -0.13043377 -0.12788735 -0.12622903 -0.10418284 -0.08315566
  0.10774022  0.1576226   0.20006918  0.26053667  0.30406619  0.35389578
  0.81936231  0.83381072  0.91742885  0.9533912   1.00455508  1.0454997
  1.06391341  1.07095037]
  GW mo_energy @ k7 =
[-0.20477203 -0.21052629 -0.14176382 -0.14031265 -0.13434966 -0.13595324
 -0.12877606 -0.13129131 -0.12229696 -0.13304002 -0.09471588 -0.09785809
  0.09816324  0.098044    0.30240266  0.30185473  0.31260562  0.3127082
  0.77760028  0.77620395  0.94523593  0.94573511  1.01632582  1.01703649
  1.06915662  1.0706405 ]

WARN: GW QP energies may not be sorted from min to max

    CPU time for GW   1110.63 sec, wall time    112.64 sec
DFT HOMO energy: 18.296388371900967
DFT LUMO energy: 11.204134400682568
DFT Band gap at Gamma point [eV]: 7.092253971218401
GW HOMO energy: 20.861203092510657
GW LUMO energy: 11.474673515539108
GW Band gap at Gamma point [eV]: 9.386529576971549
