
#Set velocity (in km/s)
variable v equal 11

#Controls angle of impact
#a = angle from horizontal/10
variable        a equal 9

#Loop through the simulation several times with different random seeds
variable        b equal 1
label           loopb
variable        seed equal 240323*$b
variable        seed equal 240323*1

#Set up impact simulation
print		"<<<<<<<<< Vel=$v, Angle=$a, Test=$b >>>>>>>>>>>"
<<<<<<<<< Vel=11, Angle=9, Test=1 >>>>>>>>>>>
units	        real
newton	     	on
atom_style full

#Periodic boundary conditions
boundary        p p p

#Read the data file
read_data       data.${sname}
read_data       data.pth2o
  triclinic box = (0 0 0) to (44.3939 44.3939 50) with tilt (0 0 0)
  1 by 1 by 1 MPI processor grid
  reading atoms ...
  1539 atoms
  0 = max # of 1-2 neighbors
  0 = max # of 1-3 neighbors
  0 = max # of 1-4 neighbors
  1 = max # of special neighbors

#Obtain the REAX pair coefficients from the ffield file
pair_style      reax/c NULL safezone 5.0 mincap 1200
pair_coeff  	* * ffield.reax Pt O H

#Apply qeq charge equilibration
fix 		qeq all qeq/reax 1 0.0 10.0 1.0e-6 reax/c

#Details of how lammps computes neighboring atoms for pairwise interactions
neighbor        2.5  bin
neigh_modify    delay 10 every 2 check yes one 15000 page 150000

#group impacting H2O by atom ids
group impactor id 1537:1539
3 atoms in group impactor

#Print thermodynamic data every 10 steps
thermo          10

#Randomize initial position and set far to equilibrate
displace_atoms 	impactor move 20.0 20.0 0.0 units box

#Compute the center of mass of the impactor
compute         cmi impactor com
variable        xd equal c_cmi[1]
variable        yd equal c_cmi[2]
variable        zd equal c_cmi[3]
variable        ranangle equal random(0,90,${seed})
variable        ranangle equal random(0,90,240323)
thermo_style    custom step etotal pe ke temp press vol c_cmi[1] c_cmi[2] c_cmi[3]

#Rotate the impactor before beginning simulation
print ">>>>>> Rotated impactor by ${ranangle} <<<<<<<"
>>>>>> Rotated impactor by 38.1471168994904 <<<<<<<
run 0
Neighbor list info ...
  update every 2 steps, delay 10 steps, check yes
  max neighbors/atom: 15000, page size: 150000
  master list distance cutoff = 12.5
  ghost atom cutoff = 12.5
  binsize = 6.25, bins = 8 8 8
  2 neighbor lists, perpetual/occasional/extra = 2 0 0
  (1) pair reax/c, perpetual
      attributes: half, newton off, ghost
      pair build: half/bin/newtoff/ghost
      stencil: half/ghost/bin/3d/newtoff
      bin: standard
  (2) fix qeq/reax, perpetual, copy from (1)
      attributes: half, newton off, ghost
      pair build: copy
      stencil: none
      bin: none
Per MPI rank memory allocation (min/avg/max) = 655.1 | 655.1 | 655.1 Mbytes
Step TotEng PotEng KinEng Temp Press Volume c_cmi[1] c_cmi[2] c_cmi[3] 
       0   -174930.33   -174930.33            0            0   -10163.895    98540.745    22.227217    20.053875    32.690199 
Loop time of 2.14577e-06 on 1 procs for 0 steps with 1539 atoms

186.4% CPU use with 1 MPI tasks x no OpenMP threads

MPI task timing breakdown:
Section |  min time  |  avg time  |  max time  |%varavg| %total
---------------------------------------------------------------
Pair    | 0          | 0          | 0          |   0.0 |  0.00
Bond    | 0          | 0          | 0          |   0.0 |  0.00
Neigh   | 0          | 0          | 0          |   0.0 |  0.00
Comm    | 0          | 0          | 0          |   0.0 |  0.00
Output  | 0          | 0          | 0          |   0.0 |  0.00
Modify  | 0          | 0          | 0          |   0.0 |  0.00
Other   |            | 2.146e-06  |            |       |100.00

Nlocal:    1539 ave 1539 max 1539 min
Histogram: 1 0 0 0 0 0 0 0 0 0
Nghost:    5964 ave 5964 max 5964 min
Histogram: 1 0 0 0 0 0 0 0 0 0
Neighs:    291267 ave 291267 max 291267 min
Histogram: 1 0 0 0 0 0 0 0 0 0

Total # of neighbors = 291267
Ave neighs/atom = 189.257
Ave special neighs/atom = 0
Neighbor list builds = 0
Dangerous builds = 0
displace_atoms  impactor rotate ${xd} ${yd} ${zd} 0.0 0.0 1.0 ${ranangle}
displace_atoms  impactor rotate 22.22721660746 ${yd} ${zd} 0.0 0.0 1.0 ${ranangle}
displace_atoms  impactor rotate 22.22721660746 20.053874955595 ${zd} 0.0 0.0 1.0 ${ranangle}
displace_atoms  impactor rotate 22.22721660746 20.053874955595 32.6901990754796 0.0 0.0 1.0 ${ranangle}
displace_atoms  impactor rotate 22.22721660746 20.053874955595 32.6901990754796 0.0 0.0 1.0 6.82583034038544
displace_atoms  impactor rotate ${xd} ${yd} ${zd} 0.0 1.0 0.0 ${ranangle}
displace_atoms  impactor rotate 22.22721660746 ${yd} ${zd} 0.0 1.0 0.0 ${ranangle}
displace_atoms  impactor rotate 22.22721660746 20.053874955595 ${zd} 0.0 1.0 0.0 ${ranangle}
displace_atoms  impactor rotate 22.22721660746 20.053874955595 32.6901990754796 0.0 1.0 0.0 ${ranangle}
displace_atoms  impactor rotate 22.22721660746 20.053874955595 32.6901990754796 0.0 1.0 0.0 4.71330642700195
displace_atoms  impactor rotate ${xd} ${yd} ${zd} 1.0 0.0 0.0 ${ranangle}
displace_atoms  impactor rotate 22.22721660746 ${yd} ${zd} 1.0 0.0 0.0 ${ranangle}
displace_atoms  impactor rotate 22.22721660746 20.053874955595 ${zd} 1.0 0.0 0.0 ${ranangle}
displace_atoms  impactor rotate 22.22721660746 20.053874955595 32.6901990754796 1.0 0.0 0.0 ${ranangle}
displace_atoms  impactor rotate 22.22721660746 20.053874955595 32.6901990754796 1.0 0.0 0.0 0.0323742628097534

#Simulation timestep
timestep  	0.1

#Print data to lammptrj file
dump            1 all custom ${dumpstep}  ${sname}.$v.lammpstrj id type x y z vx vy vz
dump            1 all custom 100  ${sname}.$v.lammpstrj id type x y z vx vy vz
dump            1 all custom 100  pth2o.$v.lammpstrj id type x y z vx vy vz
dump            1 all custom 100  pth2o.11.lammpstrj id type x y z vx vy vz
dump_modify     1 sort id

#First, minimize structure
min_style       cg
minimize        0.0 1e-6 ${minsteps} 5000
minimize        0.0 1e-6 2000 5000
WARNING: Using 'neigh_modify every 1 delay 0 check yes' setting during minimization (../min.cpp:168)
Per MPI rank memory allocation (min/avg/max) = 657.7 | 657.7 | 657.7 Mbytes
Step TotEng PotEng KinEng Temp Press Volume c_cmi[1] c_cmi[2] c_cmi[3] 
       0   -174930.33   -174930.33            0            0   -10163.895    98540.745    22.227217    20.053875    32.690199 
      10   -181625.68   -181625.68            0            0   -13832.626    98540.745     21.97259    20.156811    32.525824 
      20   -186689.16   -186689.16            0            0    -12641.63    98540.745    21.972412    20.156883    32.525707 
      30   -190196.96   -190196.96            0            0   -9718.5205    98540.745    21.972287    20.156934    32.525626 
      40   -192804.98   -192804.98            0            0    -4428.254    98540.745     21.97235    20.156908    32.525667 
      50   -193626.99   -193626.99            0            0    2523.2199    98540.745    21.972097     20.15701    32.525504 
      60   -193634.19   -193634.19            0            0    2160.4411    98540.745    21.972361    20.156903    32.525675 
      70    -193634.2    -193634.2            0            0    2167.1891    98540.745    21.972466    20.156861    32.525742 
      74    -193634.2    -193634.2            0            0    2166.0932    98540.745    21.972465    20.156861    32.525742 
Loop time of 28.4766 on 1 procs for 74 steps with 1539 atoms

99.7% CPU use with 1 MPI tasks x no OpenMP threads

Minimization stats:
  Stopping criterion = linesearch alpha is zero
  Energy initial, next-to-last, final = 
        -174930.331687     -193634.198347     -193634.198321
  Force two-norm initial, final = 658.218 0.0139891
  Force max component initial, final = 130.267 0.00665489
  Final line search alpha, max atom move = 6.10352e-05 4.06182e-07
  Iterations, force evaluations = 74 167

MPI task timing breakdown:
Section |  min time  |  avg time  |  max time  |%varavg| %total
---------------------------------------------------------------
Pair    | 25.962     | 25.962     | 25.962     |   0.0 | 91.17
Bond    | 9.1076e-05 | 9.1076e-05 | 9.1076e-05 |   0.0 |  0.00
Neigh   | 0.026119   | 0.026119   | 0.026119   |   0.0 |  0.09
Comm    | 0.0091147  | 0.0091147  | 0.0091147  |   0.0 |  0.03
Output  | 0.0013695  | 0.0013695  | 0.0013695  |   0.0 |  0.00
Modify  | 2.4616     | 2.4616     | 2.4616     |   0.0 |  8.64
Other   |            | 0.01629    |            |       |  0.06

Nlocal:    1539 ave 1539 max 1539 min
Histogram: 1 0 0 0 0 0 0 0 0 0
Nghost:    5964 ave 5964 max 5964 min
Histogram: 1 0 0 0 0 0 0 0 0 0
Neighs:    305064 ave 305064 max 305064 min
Histogram: 1 0 0 0 0 0 0 0 0 0

Total # of neighbors = 305064
Ave neighs/atom = 198.222
Ave special neighs/atom = 0
Neighbor list builds = 1
Dangerous builds = 0

#Then, run equilibration
velocity 	all create 100.0 4928459 rot yes dist gaussian #generates initial velocities at 100 K  via a gaussian distribution
fix 		equil all nvt temp 100.0 100.0 50.0 #nvt dynamics on all atoms at starting and ending temps of 100 K w 50 fs damping
run 		${eqsteps}
run 		500
Per MPI rank memory allocation (min/avg/max) = 657.8 | 657.8 | 657.8 Mbytes
Step TotEng PotEng KinEng Temp Press Volume c_cmi[1] c_cmi[2] c_cmi[3] 
      74   -193175.75    -193634.2    458.44859          100    2378.7624    98540.745    21.972465    20.156861    32.525742 
      80   -193175.75   -193634.05     458.2963    99.966783    2376.8158    98540.745    21.972292    20.158703    32.525359 
      90   -193175.75   -193633.14    457.38824    99.768711    2375.2093    98540.745    21.972005    20.161773     32.52472 
     100   -193175.75   -193631.47    455.72403    99.405701    2376.0468    98540.745    21.971717    20.164843    32.524082 
     110   -193175.74    -193629.1    453.35278    98.888467    2379.3898    98540.745    21.971429    20.167913    32.523444 
     120   -193175.74   -193626.01    450.27697    98.217551    2384.9901    98540.745    21.971141    20.170983    32.522806 
     130   -193175.72   -193622.21    446.48199    97.389762     2392.331    98540.745    21.970853    20.174053    32.522167 
     140    -193175.7   -193617.69    441.98672    96.409222    2400.6457    98540.745    21.970566    20.177123    32.521529 
     150   -193175.67   -193612.52    436.85724    95.290345    2409.1323    98540.745    21.970278    20.180193    32.520891 
     160   -193175.61   -193606.77    431.15693    94.046953    2417.3119    98540.745     21.96999    20.183263    32.520253 
     170   -193175.54   -193600.44    424.89443    92.680934    2425.3026    98540.745    21.969702    20.186333    32.519614 
     180   -193175.45   -193593.49    418.04598    91.187103    2433.7245    98540.745    21.969414    20.189404    32.518976 
     190   -193175.32   -193585.94    410.61869     89.56701    2443.3401    98540.745    21.969126    20.192475    32.518337 
     200   -193175.17   -193577.83    402.66672    87.832471    2454.7326    98540.745    21.968838    20.195547    32.517699 
     210   -193174.97   -193569.22    394.24966    85.996482    2468.1683    98540.745     21.96855    20.198619     32.51706 
     220   -193174.74   -193560.13    385.39171    84.064324    2483.5747    98540.745    21.968262    20.201692    32.516421 
     230   -193174.47   -193550.56    376.09045    82.035469    2500.4816    98540.745    21.967974    20.204767    32.515782 
     240   -193174.14   -193540.51    366.37323    79.915882    2518.0172    98540.745    21.967686    20.207842    32.515143 
     250   -193173.77    -193530.1    356.33548    77.726377    2535.1296    98540.745    21.967397    20.210919    32.514503 
     260   -193173.34   -193519.43    346.09303    75.492224    2551.0987    98540.745    21.967109    20.213997    32.513863 
     270   -193172.85   -193508.55    335.69894    73.224991    2565.9433    98540.745     21.96682    20.217078    32.513223 
     280   -193172.31   -193497.46    325.14667    70.923257    2580.3273    98540.745    21.966531    20.220161    32.512582 
     290   -193171.71   -193486.16    314.45031    68.590093     2595.107    98540.745    21.966242    20.223247     32.51194 
     300   -193171.06   -193474.75    303.68314    66.241482    2610.8992    98540.745    21.965952    20.226336    32.511298 
     310   -193170.36    -193463.3    292.93914    63.897927    2628.0117    98540.745    21.965662    20.229428    32.510655 
     320   -193169.62   -193451.89    282.27432    61.571642    2646.5339    98540.745    21.965372    20.232524    32.510011 
     330   -193168.83   -193440.51     271.6791    59.260538    2666.3376    98540.745    21.965081    20.235624    32.509367 
     340   -193168.02   -193429.13    261.10701     56.95448    2686.9127    98540.745     21.96479    20.238729    32.508721 
     350   -193167.19   -193417.74    250.55474    54.652745    2707.1973    98540.745    21.964499    20.241838    32.508075 
     360   -193166.34   -193406.46      240.113    52.375122    2725.8264    98540.745    21.964207    20.244953    32.507427 
     370   -193165.51    -193395.4    229.89017    50.145247    2741.8847    98540.745    21.963914    20.248074    32.506779 
     380   -193164.68   -193384.58    219.89734     47.96554    2755.5195    98540.745    21.963621      20.2512    32.506129 
     390   -193163.88   -193373.96    210.08113    45.824361    2767.7626    98540.745    21.963327    20.254332    32.505477 
     400   -193163.11   -193363.56    200.44924    43.723384    2779.7808    98540.745    21.963033    20.257469    32.504825 
     410   -193162.38   -193353.48     191.0984    41.683714     2792.275    98540.745    21.962739    20.260613    32.504172 
     420    -193161.7   -193343.84    182.14037    39.729727    2805.4547    98540.745    21.962443    20.263762    32.503517 
     430   -193161.05   -193334.68    173.63436    37.874336    2819.2571    98540.745    21.962148    20.266917    32.502861 
     440   -193160.43   -193326.01    165.57505    36.116384    2833.4446    98540.745    21.961851    20.270078    32.502204 
     450   -193159.85   -193317.78     157.9321    34.449251    2847.5196    98540.745    21.961554    20.273245    32.501545 
     460   -193159.29   -193310.01    150.71587    32.875196    2860.5826    98540.745    21.961257    20.276417    32.500886 
     470   -193158.75   -193302.75    144.00379     31.41111    2871.5511    98540.745    21.960959    20.279595    32.500225 
     480   -193158.22    -193296.1    137.87061    30.073297    2879.6985    98540.745     21.96066    20.282779    32.499563 
     490   -193157.71   -193290.01      132.303    28.858852    2885.1624    98540.745    21.960361    20.285969      32.4989 
     500    -193157.2   -193284.43    127.23406    27.753179    2888.8294    98540.745    21.960062    20.289166    32.498236 
     510   -193156.69   -193279.33    122.64674    26.752561    2891.7764    98540.745    21.959762    20.292368     32.49757 
     520   -193156.18   -193274.77    118.59712    25.869231    2894.7441    98540.745    21.959461    20.295577    32.496902 
     530   -193155.67   -193270.82    115.15005    25.117331     2898.016    98540.745    21.959159    20.298794    32.496234 
     540   -193155.15   -193267.48    112.32244    24.500553    2901.5109    98540.745    21.958857    20.302017    32.495564 
     550   -193154.63   -193264.72    110.08691    24.012923    2904.8589    98540.745    21.958554    20.305248    32.494892 
     560   -193154.11   -193262.53    108.42216    23.649796    2907.3918    98540.745    21.958251    20.308486    32.494219 
     570   -193153.58   -193260.93    107.35477     23.41697    2908.2631    98540.745    21.957946    20.311732    32.493544 
     574   -193153.36   -193260.47    107.10706    23.362938     2907.982    98540.745    21.957824    20.313033    32.493273 
Loop time of 85.3082 on 1 procs for 500 steps with 1539 atoms

Performance: 0.051 ns/day, 473.934 hours/ns, 5.861 timesteps/s
99.6% CPU use with 1 MPI tasks x no OpenMP threads

MPI task timing breakdown:
Section |  min time  |  avg time  |  max time  |%varavg| %total
---------------------------------------------------------------
Pair    | 79.094     | 79.094     | 79.094     |   0.0 | 92.72
Bond    | 0.00022435 | 0.00022435 | 0.00022435 |   0.0 |  0.00
Neigh   | 0          | 0          | 0          |   0.0 |  0.00
Comm    | 0.025842   | 0.025842   | 0.025842   |   0.0 |  0.03
Output  | 0.082256   | 0.082256   | 0.082256   |   0.0 |  0.10
Modify  | 6.0997     | 6.0997     | 6.0997     |   0.0 |  7.15
Other   |            | 0.005879   |            |       |  0.01

Nlocal:    1539 ave 1539 max 1539 min
Histogram: 1 0 0 0 0 0 0 0 0 0
Nghost:    5964 ave 5964 max 5964 min
Histogram: 1 0 0 0 0 0 0 0 0 0
Neighs:    311995 ave 311995 max 311995 min
Histogram: 1 0 0 0 0 0 0 0 0 0

Total # of neighbors = 311995
Ave neighs/atom = 202.726
Ave special neighs/atom = 0
Neighbor list builds = 0
Dangerous builds = 0
unfix 		equil

#Bring the impactor close to the surface
displace_atoms  impactor move 0.0 0.0 -15.0 units box

#Give the impactor a velocity toward the surface
variable 	impv equal $v*-0.01
variable 	impv equal 11*-0.01
variable 	ang equal PI*$a*10/180.0
variable 	ang equal PI*9*10/180.0
variable 	vy equal ${impv}*cos(${ang})
variable 	vy equal -0.11*cos(${ang})
variable 	vy equal -0.11*cos(1.5707963267949)
variable 	vz equal ${impv}*sin(${ang})
variable 	vz equal -0.11*sin(${ang})
variable 	vz equal -0.11*sin(1.5707963267949)
velocity 	impactor set NULL ${vy} ${vz} sum yes units box
velocity 	impactor set NULL 3.84062947272745e-16 ${vz} sum yes units box
velocity 	impactor set NULL 3.84062947272745e-16 -0.11 sum yes units box

#Guess the number of steps that will be needed
variable impsteps equal ceil(-20/${vz}*10)
variable impsteps equal ceil(-20/-0.11*10)

#Run the impact simulation
fix  		dyn all nve
fix 		frags all reax/c/species 10 10 100 species.$b.$a.out element Pt H O cutoff 2 2 .88 cutoff 3 3 .88 cutoff 2 3 .88
fix 		frags all reax/c/species 10 10 100 species.1.$a.out element Pt H O cutoff 2 2 .88 cutoff 3 3 .88 cutoff 2 3 .88
fix 		frags all reax/c/species 10 10 100 species.1.9.out element Pt H O cutoff 2 2 .88 cutoff 3 3 .88 cutoff 2 3 .88
WARNING: Resetting reneighboring criteria for fix reax/c/species (../fix_reaxc_species.cpp:103)
fix  		bonds all reax/c/bonds 100 bonds.reaxc.$b.$a.${sname}
fix  		bonds all reax/c/bonds 100 bonds.reaxc.1.$a.${sname}
fix  		bonds all reax/c/bonds 100 bonds.reaxc.1.9.${sname}
fix  		bonds all reax/c/bonds 100 bonds.reaxc.1.9.pth2o
run 		${impsteps}
run 		1819
Per MPI rank memory allocation (min/avg/max) = 668.8 | 668.8 | 668.8 Mbytes
Step TotEng PotEng KinEng Temp Press Volume c_cmi[1] c_cmi[2] c_cmi[3] 
     574   -192889.75   -193260.57    370.81958     80.88575    3030.0906    98540.745    21.957824    20.313033    17.493273 
     580   -192889.75   -193260.08    370.32915    80.778774    3028.7551    98540.745    21.957641    20.314985    17.426867 
     590   -192889.75   -193259.77    370.02036     80.71142    3024.6128    98540.745    21.957336    20.318239    17.316187 
     600   -192889.75   -193260.03    370.28489     80.76912    3018.6062    98540.745    21.957031    20.321492    17.205502 
     610   -192889.75   -193260.81    371.05634    80.937395    3011.6201    98540.745    21.956726    20.324746    17.094813 
     620   -192889.75   -193262.07    372.31807    81.212613    3004.4622    98540.745    21.956421    20.327999    16.984119 
     630   -192889.75   -193263.83    374.08023    81.596987    2997.6472    98540.745    21.956116    20.331253    16.873419 
     640   -192889.75   -193266.07    376.32583    82.086812    2991.3892    98540.745    21.955811    20.334506    16.762712 
     650   -192889.75   -193268.74    378.98887    82.667693    2985.5694    98540.745    21.955506    20.337759    16.651999 
     660   -192889.75   -193271.74    381.99207    83.322772    2979.6541    98540.745    21.955201    20.341012    16.541277 
     670   -192889.75   -193275.07    385.31492    84.047575    2972.7165    98540.745    21.954896    20.344266    16.430548 
     680   -192889.75   -193278.76    389.00421    84.852309    2963.8065    98540.745    21.954591    20.347518    16.319808 
     690   -192889.75   -193282.84    393.08889    85.743288     2952.557    98540.745    21.954286    20.350771    16.209058 
     700   -192889.75   -193287.26    397.51221    86.708132    2939.4505    98540.745    21.953981    20.354024    16.098296 
     710   -192889.75   -193291.93    402.18487    87.727367    2925.5299    98540.745    21.953675    20.357277     15.98752 
     720   -192889.75   -193296.82    407.07083    88.793126    2911.7972    98540.745     21.95337    20.360529     15.87673 
     730   -192889.75   -193301.94    412.18868    89.909468    2898.9116    98540.745    21.953065    20.363781    15.765923 
     740   -192889.75    -193307.3    417.55015    91.078948    2887.1861    98540.745     21.95276    20.367033    15.655096 
     750   -192889.75   -193312.86    423.10968    92.291632    2876.7269    98540.745    21.952455    20.370285    15.544249 
     760   -192889.75   -193318.52    428.76393    93.524976    2867.3682    98540.745     21.95215    20.373537    15.433377 
     770   -192889.75   -193324.16    434.40948    94.756423    2858.4927    98540.745    21.951844    20.376788    15.322478 
     780   -192889.75   -193329.78    440.02629      95.9816    2848.8038    98540.745    21.951539     20.38004     15.21155 
     790   -192889.76   -193335.44    445.68687    97.216325    2837.5654    98540.745    21.951234     20.38329    15.100583 
     800   -192889.76   -193341.15    451.39842    98.462168    2824.3073    98540.745    21.950933    20.386536    14.989569 
     810   -192889.75   -193346.86    457.10906    99.707813    2809.4692    98540.745    21.950636    20.389777    14.878496 
     820   -192889.75   -193352.53    462.77588     100.9439    2794.2695    98540.745    21.950344    20.393009    14.767342 
     830   -192889.75   -193358.18    468.42873    102.17694    2780.4603    98540.745    21.950059    20.396226    14.656074 
     840   -192889.75    -193363.9     474.1493    103.42475      2768.17    98540.745    21.949782    20.399422    14.544656 
     850   -192889.74   -193369.81    480.06366    104.71483    2757.7053    98540.745    21.949515    20.402588    14.433035 
     860   -192889.75   -193375.93    486.18293    106.04961     2749.423    98540.745    21.949257    20.405712    14.321143 
     870   -192889.75   -193382.25    492.50224    107.42802    2743.0135    98540.745    21.949009    20.408779    14.208902 
     880   -192889.74    -193388.8    499.05513    108.85738      2737.74    98540.745    21.948769    20.411768     14.09622 
     890   -192889.74   -193395.72    505.97702    110.36723    2733.1246    98540.745    21.948537    20.414652    13.982982 
     900   -192889.75   -193403.22    513.47813    112.00343    2727.8867    98540.745    21.948314    20.417393    13.869055 
     910   -192889.74   -193411.56    521.81912    113.82282    2721.8585    98540.745    21.948105    20.419934    13.754271 
     920   -192889.74   -193421.05    531.31083    115.89322    2714.4423    98540.745    21.947909    20.422187    13.638423 
     930   -192889.74   -193432.13    542.39685    118.31138    2706.5385    98540.745    21.947706    20.424025    13.521256 
     940   -192889.73   -193445.22     555.4897    121.16729     2700.857    98540.745    21.947415    20.425292    13.402489 
     950   -192889.73   -193460.06    570.32844    124.40401    2701.7827    98540.745    21.946865    20.425855    13.281924 
     960   -192889.74   -193472.25    582.51089    127.06133    2797.8975    98540.745    21.945861     20.42569    13.159729 
     970   -192889.76   -193473.46    583.70229    127.32121      2852.06    98540.745    21.944446    20.424946    13.037608 
     980   -192889.76    -193460.5    570.74171    124.49416    2866.9183    98540.745    21.942809    20.424051    12.917751 
     990   -192889.74   -193439.71    549.97265    119.96387    2898.4217    98540.745    21.941307    20.423549    12.802271 
    1000   -192889.74   -193423.64    533.90101    116.45821    2939.7964    98540.745    21.940443    20.423763    12.693258 
    1010   -192889.57   -193418.06    528.49548    115.27912    2907.6884    98540.745     21.94083    20.424469    12.592466 
    1020   -192889.51   -193384.74    495.22905    108.02281    3033.5882    98540.745    21.943677    20.424364    12.501834 
    1030   -192889.47   -193346.48    457.00951      99.6861    3017.6002    98540.745      21.9487    20.420038    12.426784 
    1040   -192889.46   -193334.75     445.2846     97.12858    2892.3031    98540.745    21.951859    20.411263    12.366081 
    1050   -192889.53   -193332.44    442.91224    96.611104    2805.2911    98540.745    21.952956    20.400013     12.31447 
    1060   -192889.52   -193342.14    452.61863    98.728329    2741.0361    98540.745    21.952763    20.387663    12.268083 
    1070   -192889.53   -193369.55    480.01809    104.70489    2712.6047    98540.745    21.951885    20.375425    12.223275 
    1080   -192889.61   -193381.51    491.90258    107.29722    2698.9944    98540.745    21.950694     20.36403    12.177361 
    1090   -192889.66   -193375.31    485.65307    105.93403    2694.7498    98540.745    21.949272    20.353373    12.129613 
    1100   -192889.66   -193367.36    477.70752    104.20089    2697.2901    98540.745    21.947638    20.343459    12.080057 
    1110   -192889.66   -193361.19     471.5323    102.85391    2702.5331    98540.745    21.945911    20.334343    12.028914 
    1120   -192889.66   -193355.75     466.0962    101.66815    2709.3502    98540.745    21.944251    20.325946    11.976374 
    1130   -192889.66   -193350.91    461.24888    100.61082    2716.5734    98540.745    21.942828    20.318122    11.922619 
    1140   -192889.66   -193346.65     456.9889    99.681602    2723.6522    98540.745    21.941809     20.31071     11.86781 
    1150   -192889.66   -193343.05    453.39533    98.897748    2730.6092    98540.745    21.941351    20.303559    11.812072 
    1160   -192889.65    -193340.3    450.65061    98.299052    2737.6925    98540.745    21.941585    20.296534    11.755487 
    1170   -192889.65   -193338.55     448.8963    97.916389    2744.4454    98540.745      21.9426    20.289538    11.698092 
    1180   -192889.65   -193337.99    448.33455    97.793857    2750.6597    98540.745    21.944429    20.282508    11.639878 
    1190   -192889.65   -193338.97     449.3155    98.007828    2755.4838    98540.745    21.947041    20.275418    11.580791 
    1200   -192889.65   -193342.27    452.61964    98.728551    2757.5508    98540.745    21.950341    20.268259    11.520706 
    1210   -192889.66   -193349.81    460.15028    100.37118    2754.0511    98540.745    21.954204    20.260992    11.459298 
    1220   -192889.66   -193355.95    466.28694    101.70976     2784.272    98540.745     21.95847    20.253673    11.396473 
    1230   -192889.66    -193358.8    469.13715    102.33146    2800.0998    98540.745    21.962551    20.247126    11.334721 
    1240   -192889.71   -193362.64    472.93028    103.15885    2838.1259    98540.745    21.966019    20.240966    11.272835 
    1250   -192889.67   -193343.21      453.539    98.929088    2945.4383    98540.745    21.968289    20.234988    11.211288 
    1260   -192889.67    -193325.5    435.82671    95.065558    2960.3562    98540.745    21.968684    20.229363    11.151541 
    1270   -192889.67   -193313.72    424.04779    92.496258    2950.5428    98540.745    21.967585    20.225117    11.094289 
    1280   -192889.67   -193308.87    419.19294    91.437285    2955.3993    98540.745    21.966117     20.22375    11.040724 
    1290   -192889.68   -193308.87    419.18907    91.436442    2966.8048    98540.745    21.964335    20.226162    10.992108 
    1300   -192889.68   -193308.27    418.58791    91.305311    2976.5046    98540.745    21.961485    20.232581    10.949827 
    1310   -192889.68   -193302.04    412.36121    89.947101    2985.4173    98540.745    21.956767    20.242835    10.915527 
    1320   -192889.67   -193290.42    400.74749    87.413835    2994.7729    98540.745     21.94945    20.256554    10.891009 
    1330   -192889.66   -193280.65    390.98725    85.284864    3004.0525    98540.745    21.938836    20.273428    10.877945 
    1340   -192889.65   -193282.06    392.41327    85.595918    3015.9424    98540.745    21.924379    20.293466      10.8775 
    1350   -192889.66    -193289.6    399.93947    87.237584    2920.6256    98540.745    21.905757    20.317024    10.889768 
    1360   -192889.66   -193298.18    408.51919    89.109052     2897.776    98540.745    21.882829    20.344218     10.91244 
    1370   -192889.66    -193309.7    420.04103    91.622276    2869.5997    98540.745    21.855848    20.375174    10.943522 
    1380   -192889.66   -193319.69     430.0257    93.800203    2843.1157    98540.745    21.825347    20.409632    10.980638 
    1390   -192889.66   -193326.11    436.44344    95.200085    2823.0873    98540.745    21.792057    20.447007    11.021297 
    1400   -192889.66   -193328.21    438.54523     95.65854    2811.4956    98540.745    21.756863    20.486472    11.063205 
    1410   -192889.66   -193325.63    435.97207    95.097266    2808.8876    98540.745    21.720793    20.527002    11.104387 
    1420   -192889.66   -193318.49    428.83544    93.540574    2814.2182    98540.745    21.685008    20.567423    11.143199 
    1430   -192889.66   -193307.61    417.95729    91.167757    2824.5974    98540.745    21.650753    20.606461    11.178292 
    1440   -192889.66   -193294.43     404.7738    88.292081    2835.9106    98540.745    21.619304    20.642774    11.208514 
    1450   -192889.65   -193280.99    391.33982    85.361769    2843.0861    98540.745    21.591941    20.674965    11.232766 
    1460   -192889.65   -193270.19    380.53365    83.004651    2843.4132    98540.745    21.569901    20.701637    11.249924 
    1470   -192889.65   -193265.51    375.85684    81.984514    2837.0207    98540.745     21.55423    20.721545     11.25896 
    1480   -192889.65   -193269.67    380.02223    82.893097    2827.4965    98540.745     21.54555    20.733862    11.259187 
    1490   -192889.65    -193282.8    393.14249    85.754979     2816.365    98540.745    21.543856    20.738463    11.250478 
    1500   -192889.66   -193301.83    412.17057    89.905517    2804.5508    98540.745    21.548496    20.736043    11.233369 
    1510   -192889.66   -193322.03    432.36852    94.311234    2791.4732    98540.745    21.558385    20.727944    11.208977 
    1520   -192889.66   -193339.19    449.52523    98.053575    2776.3602    98540.745    21.572327    20.715813    11.178789 
    1530   -192889.66   -193351.09     461.4289    100.65009    2761.0282    98540.745    21.589282    20.701311    11.144386 
    1540   -192889.66   -193357.97    468.30277    102.14946     2748.165    98540.745    21.608508    20.685932    11.107203 
    1550   -192889.66   -193361.96    472.30351    103.02213    2741.1864    98540.745     21.62956    20.670923    11.068392 
    1560   -192889.63   -193365.81    476.18448    103.86868      2739.22    98540.745    21.652166    20.657235    11.028763 
    1570   -192889.62   -193368.76     479.1478    104.51506     2850.337    98540.745    21.676056    20.645478    10.988848 
    1580    -192889.6    -193364.3    474.69958    103.54478    2814.2067    98540.745     21.70064    20.635849    10.950124 
    1590    -192889.6   -193362.28     472.6836    103.10504    2814.5091    98540.745     21.72522    20.628403    10.913476 
    1600    -192889.6   -193358.34    468.74311    102.24551    2821.4765    98540.745    21.748804    20.623067    10.879729 
    1610    -192889.6   -193350.16    460.55571    100.45962    2836.4695    98540.745    21.770062    20.619556    10.849981 
    1620    -192889.7   -193338.09    448.39096    97.806161    2849.9754    98540.745    21.787509    20.617441    10.825515 
    1630   -192889.76   -193327.82    438.06321    95.553399    2870.1569    98540.745    21.799634    20.616468    10.807897 
    1640   -192889.73    -193315.6    425.87015    92.893766    2777.1859    98540.745    21.805114    20.616339    10.798075 
    1650   -192889.72   -193313.04    423.31411    92.336222    2769.8664    98540.745    21.803103    20.616582    10.795662 
    1660   -192889.73   -193318.62    428.89808    93.554237    2753.8315    98540.745    21.793819     20.61725    10.800511 
    1670   -192889.73   -193326.64    436.91686    95.303349     2732.438    98540.745     21.77808    20.618503    10.811752 
    1680   -192889.72    -193333.2    443.47467    96.733785    2709.0259    98540.745    21.757026     20.62046    10.828083 
    1690   -192889.72   -193336.94    447.21943    97.550618    2686.5044    98540.745    21.731921    20.623145    10.848067 
    1700   -192889.72   -193338.05    448.32527    97.791833    2666.4983    98540.745    21.704022    20.626494    10.870332 
    1710   -192889.72   -193337.33    447.60947    97.635697    2649.2142    98540.745    21.674481    20.630399    10.893706 
    1720   -192889.72   -193335.66    445.93865    97.271246    2633.9259    98540.745    21.644266    20.634735    10.917285 
    1730   -192889.72   -193333.78    444.06452    96.862448    2620.0178    98540.745    21.614091    20.639415    10.940432 
    1740   -192889.72   -193332.42    442.69807    96.564387    2606.6492    98540.745    21.584333    20.644416    10.962726 
    1750   -192889.72   -193332.16    442.43884    96.507844    2591.1432    98540.745     21.55489    20.649789    10.983854 
    1760   -192889.72   -193333.25    443.53007     96.74587    2568.8022    98540.745    21.525031    20.655672     11.00348 
    1770   -192889.73   -193334.15    444.41844    96.939647    2621.4628    98540.745    21.493583    20.662234    11.021125 
    1780   -192889.72    -193329.5    439.78129    95.928159    2689.1533    98540.745    21.461684    20.669242    11.037007 
    1790   -192889.73   -193325.82    436.09076    95.123155    2686.1276    98540.745    21.429958    20.676694    11.051921 
    1800   -192889.73   -193322.25     432.5251    94.345388    2665.0698    98540.745    21.396363    20.685439    11.066317 
    1810   -192889.72   -193319.37    429.64159    93.716418    2695.3258    98540.745    21.360695    20.696326     11.08025 
    1820   -192889.73   -193320.79    431.06497    94.026896    2695.6568    98540.745    21.323188    20.709869    11.093821 
    1830   -192889.73   -193324.67     434.9382    94.871751    2698.3199    98540.745    21.283918    20.726453    11.107099 
    1840   -192889.73   -193327.33    437.59967     95.45229     2700.775    98540.745    21.243505    20.746141    11.119845 
    1850   -192889.73   -193327.37     437.6381    95.460672    2734.5656    98540.745    21.202815    20.768787    11.131849 
    1860   -192889.73   -193325.07    435.34649     94.96081    2799.9441    98540.745    21.162586    20.794016    11.143623 
    1870   -192889.73   -193323.35    433.62622    94.585574    2790.3934    98540.745    21.123275    20.821261     11.15614 
    1880   -192889.72    -193319.8    430.07236     93.81038     2716.357    98540.745     21.08539    20.849895    11.169421 
    1890   -192889.72   -193311.52    421.79383    92.004608    2708.7582    98540.745    21.049631    20.879134    11.182827 
    1900   -192889.72   -193300.53    410.80962    89.608658    2718.9862    98540.745    21.016649    20.908198     11.19655 
    1910   -192889.72   -193289.47    399.74669    87.195533    2728.1833    98540.745    20.987129    20.936512    11.211266 
    1920   -192889.72   -193281.62    391.89548    85.482974    2734.5429    98540.745    20.961753    20.963789    11.227671 
    1930   -192889.72   -193278.64    388.92043    84.834033    2736.9905    98540.745    20.940987     20.99008    11.246351 
    1940   -192889.72   -193279.37    389.64742    84.992611    2736.1841    98540.745     20.92491    21.015692     11.26771 
    1950   -192889.72   -193281.25    391.52715    85.402631    2733.7045    98540.745    20.913185    21.041023    11.291979 
    1960   -192889.72   -193282.49     392.7684     85.67338    2730.9993    98540.745    20.905153    21.066378    11.319281 
    1970   -192889.72    -193282.9    393.18134    85.763453    2728.1498    98540.745    20.899968    21.091878     11.34967 
    1980   -192889.72   -193283.84     394.1205    85.968309    2725.3571    98540.745    20.896738    21.117451    11.383139 
    1990   -192889.72   -193287.22    397.49562    86.704513    2721.4058    98540.745    20.894656    21.142916    11.419596 
    2000   -192889.72    -193293.4    403.67931    88.053344    2715.7359    98540.745    20.893095    21.168162    11.458784 
    2010   -192889.73   -193299.86    410.13832    89.462229    2709.5346    98540.745    20.891585    21.193326    11.500227 
    2020   -192889.73   -193302.59    412.86257     90.05646    2704.6504    98540.745    20.889715    21.218834    11.543285 
    2030   -192889.73   -193299.54    409.80991    89.390593    2702.2787    98540.745    20.887022    21.245299    11.587327 
    2040   -192889.72   -193293.03     403.3089    87.972548    2701.7399    98540.745    20.882965    21.273278     11.63184 
    2050   -192889.72   -193287.94    398.21903     86.86231    2701.3223    98540.745    20.877029    21.302966    11.676345 
    2060   -192889.72    -193286.4    396.68061    86.526738    2699.0333    98540.745    20.868885    21.333975    11.720168 
    2070   -192889.72   -193286.18    396.45624    86.477798    2694.2559    98540.745    20.858441    21.365383    11.762316 
    2080   -192889.72   -193284.46    394.73944    86.103318    2686.9626    98540.745    20.845746    21.396009    11.801596 
    2090   -192889.72    -193280.7    390.98027    85.283342    2677.8384    98540.745    20.830867    21.424703    11.836821 
    2100   -192889.71   -193276.19    386.48039    84.301795    2667.9845    98540.745    20.813831    21.450519    11.866962 
    2110   -192889.71   -193272.81    383.09226    83.562753    2658.3961    98540.745    20.794653    21.472802    11.891246 
    2120   -192889.71   -193271.96    382.24924    83.378867    2649.4429    98540.745    20.773388    21.491234    11.909248 
    2130   -192889.71   -193274.04    384.32952    83.832634    2640.9173    98540.745    20.750187    21.505858    11.920948 
    2140   -192889.71   -193278.31    388.59265    84.762536    2632.0804    98540.745     20.72534    21.517052    11.926716 
    2150   -192889.71   -193283.35    393.63195    85.861744    2622.5752    98540.745    20.699295    21.525445    11.927245 
    2160   -192889.72   -193287.72    398.00676    86.816008    2612.4771    98540.745    20.672627    21.531804     11.92345 
    2170   -192889.72   -193290.49    400.77322    87.419448    2601.8569    98540.745    20.645988    21.536931    11.916356 
    2180   -192889.72   -193291.57    401.85715    87.655882    2590.5327    98540.745    20.620037    21.541575    11.907004 
    2190   -192889.72   -193291.81    402.09571    87.707917    2578.7653    98540.745     20.59538    21.546362    11.896364 
    2200   -192889.72    -193292.5    402.78508    87.858289    2566.1412    98540.745    20.572503    21.551751    11.885234 
    2210   -192889.72    -193294.5    404.78397    88.294301    2552.5137    98540.745    20.551719    21.558025    11.874158 
    2220   -192889.72   -193297.61    407.89106    88.972041    2538.0425    98540.745    20.533159    21.565304    11.863403 
    2230   -192889.72   -193300.85    411.13462    89.679548    2523.3713    98540.745    20.516799    21.573613     11.85302 
    2240   -192889.72   -193303.29    413.57242    90.211299    2509.0111    98540.745    20.502531    21.582946    11.842959 
    2250   -192889.71   -193304.52    414.80933    90.481102    2496.0874    98540.745    20.490245    21.593308    11.833176 
    2260   -192889.71   -193304.73    415.01552    90.526078    2484.9526    98540.745    20.479895     21.60474    11.823689 
    2270   -192889.71   -193304.44    414.72887    90.463551    2476.0303    98540.745    20.471529    21.617305    11.814583 
    2280   -192889.71   -193304.38    414.66777    90.450225    2469.5206    98540.745    20.465259    21.631076    11.805986 
    2290   -192889.71   -193305.21     415.4974    90.631187    2466.3322    98540.745    20.461116    21.646105    11.798025 
    2300   -192889.71   -193307.02    417.31163     91.02692    2465.5437    98540.745    20.458875    21.662405    11.790808 
    2310   -192889.71   -193309.04    419.32285    91.465621    2465.2844    98540.745    20.458016    21.679984    11.784493 
    2320   -192889.72    -193309.9    420.17853    91.652269    2464.5899    98540.745    20.457846    21.698894    11.779389 
    2330   -192889.72   -193308.45    418.72899    91.336085    2463.3458    98540.745    20.457639    21.719236    11.775999 
    2340   -192889.72   -193304.78    415.05712    90.535152    2460.8075    98540.745     20.45668    21.741108    11.774984 
    2350   -192889.72   -193301.26    411.53739    89.767403    2455.1717    98540.745    20.454295    21.764565    11.777048 
    2360   -192889.72   -193301.78    412.06647    89.882809    2444.3885    98540.745    20.449947    21.789578    11.782713 
    2370   -192889.72   -193308.14    418.42436    91.269638    2427.7432    98540.745    20.443368    21.816032    11.792027 
    2380   -192889.72   -193317.76    428.04098    93.367282    2406.7164    98540.745    20.434634    21.843747    11.804457 
    2390   -192889.72   -193326.45     436.7311     95.26283    2384.0795    98540.745    20.424081    21.872519    11.819074 
    2393   -192889.72   -193328.46    438.73719    95.700414    2377.3932    98540.745    20.420627    21.881326    11.823732 
Loop time of 316.593 on 1 procs for 1819 steps with 1539 atoms

Performance: 0.050 ns/day, 483.467 hours/ns, 5.746 timesteps/s
99.4% CPU use with 1 MPI tasks x no OpenMP threads

MPI task timing breakdown:
Section |  min time  |  avg time  |  max time  |%varavg| %total
---------------------------------------------------------------
Pair    | 291.85     | 291.85     | 291.85     |   0.0 | 92.19
Bond    | 0.00093484 | 0.00093484 | 0.00093484 |   0.0 |  0.00
Neigh   | 0.47047    | 0.47047    | 0.47047    |   0.0 |  0.15
Comm    | 0.11029    | 0.11029    | 0.11029    |   0.0 |  0.03
Output  | 0.56108    | 0.56108    | 0.56108    |   0.0 |  0.18
Modify  | 23.582     | 23.582     | 23.582     |   0.0 |  7.45
Other   |            | 0.01457    |            |       |  0.00

Nlocal:    1539 ave 1539 max 1539 min
Histogram: 1 0 0 0 0 0 0 0 0 0
Nghost:    5968 ave 5968 max 5968 min
Histogram: 1 0 0 0 0 0 0 0 0 0
Neighs:    312403 ave 312403 max 312403 min
Histogram: 1 0 0 0 0 0 0 0 0 0

Total # of neighbors = 312403
Ave neighs/atom = 202.991
Ave special neighs/atom = 0
Neighbor list builds = 18
Dangerous builds not checked

#Exit the simulation
unfix		qeq
unfix		dyn
unfix		frags
unfix		bonds
clear



Please see the log.cite file for references relevant to this simulation

Total wall time: 0:07:11
