/groups/wag/pkozlows/miniconda3/envs/pyscf/lib/python3.11/site-packages/pyscf/dft/libxc.py:772: UserWarning: Since PySCF-2.3, B3LYP (and B3P86) are changed to the VWN-RPA variant, the same to the B3LYP functional in Gaussian and ORCA (issue 1480). To restore the VWN5 definition, you can put the setting "B3LYP_WITH_VWN5 = True" in pyscf_conf.py
  warnings.warn('Since PySCF-2.3, B3LYP (and B3P86) are changed to the VWN-RPA variant, '
Discarded 6 diffused primitive functions, 0 contracted functions
#INFO: **** input file is /central/home/pkozlows/ch121b/gan/dft/szv/222/3/szv_2.py ****
# import statements
import pyscf.pbc.tools.pyscf_ase as pyscf_ase
import pyscf.pbc.gto as pbcgto
import pyscf.pbc.dft as pbcdft


from ase.build import bulk
from ase.dft.kpoints import sc_special_points as special_points, get_bandpath

import numpy as np

# ase
c = bulk('GaN', 'wurtzite', a=3.19, c=5.19)

# pyscf specs
cell = pbcgto.Cell()
cell.atom = pyscf_ase.ase_atoms_to_pyscf(c)
cell.a = c.cell
cell.exp_to_discard = 0.1

cell.basis = 'gth-szv'
cell.pseudo = 'gth-pade'
cell.verbose = 5
cell.build()

# define the special points here
points = special_points['hexagonal']
G = points['G']
K = points['K']
M = points['M']
A = points['A']
L = points['L']
H = points['H']

# Choose an appropriate path for the band structure calculation
band_kpts, kpath, sp_points = get_bandpath([G, M, K, G, A, L, H, A], c.cell, npoints=50)
band_kpts = cell.get_abs_kpts(band_kpts)

# dft calculation
kmf = pbcdft.KRKS(cell, cell.make_kpts([2,2,2]))
kmf.xc = 'b3pw91'
kmf.kernel()

# get the data from the calculation
e_kn_2 = kmf.get_bands(band_kpts)[0]
vbmax = -99
for en in e_kn_2:
    vb_k = en[cell.nelectron//2-1]
    if vb_k > vbmax:
        vbmax = vb_k
e_kn_2 = [en - vbmax for en in e_kn_2]

# Saving data to .npy files
np.save('band_kpts.npy', band_kpts)
np.save('kpath.npy', kpath)
np.save('sp_points.npy', sp_points)
np.save('e_kn_2.npy', e_kn_2)
np.save('nbands.npy', cell.nao_nr())







#INFO: ******************** input file end ********************


System: uname_result(system='Linux', node='hpc-19-31.cm.cluster', release='3.10.0-1160.53.1.el7.x86_64', version='#1 SMP Fri Jan 14 13:59:45 UTC 2022', machine='x86_64')  Threads 32
Python 3.11.5 (main, Sep 11 2023, 13:54:46) [GCC 11.2.0]
numpy 1.26.0  scipy 1.11.3
Date: Mon Oct 30 01:59:06 2023
PySCF version 2.3.0
PySCF path  /groups/wag/pkozlows/miniconda3/envs/pyscf/lib/python3.11/site-packages/pyscf

[ENV] PYSCF_CONFIG_FILE /home/pkozlows
[CONFIG] conf_file /home/pkozlows/.pyscf_conf.py
[INPUT] verbose = 5
[INPUT] max_memory = 451928 
[INPUT] num. atoms = 4
[INPUT] num. electrons = 36
[INPUT] charge = 0
[INPUT] spin (= nelec alpha-beta = 2S) = 0
[INPUT] symmetry False subgroup None
[INPUT] Mole.unit = angstrom
[INPUT] Symbol           X                Y                Z      unit          X                Y                Z       unit  Magmom
[INPUT]  1 Ga     0.000000000000   0.000000000000   0.000000000000 AA    0.000000000000   0.000000000000   0.000000000000 Bohr   0.0
[INPUT]  2 N     -0.000000000000   1.841747358715   0.643929030186 AA   -0.000000000000   3.480398098612   1.216849510709 Bohr   0.0
[INPUT]  3 Ga    -0.000000000000   1.841747358715   2.595000000000 AA   -0.000000000000   3.480398098612   4.903839293246 Bohr   0.0
[INPUT]  4 N      0.000000000000   0.000000000000   3.238929030186 AA    0.000000000000   0.000000000000   6.120688803955 Bohr   0.0
[INPUT] ---------------- BASIS SET ---------------- 
[INPUT] l, kappa, [nprim/nctr], expnt,             c_1 c_2 ...
[INPUT] Ga
[INPUT] 0    0    [5    /1   ]  7.06665397037     0.00403882881
                                3.42836918        -0.04992601521
                                1.43006411438     0.270487560795
                                0.571610928613    0.114461485481
                                0.232196966975    -0.765662388169
[INPUT] 1    0    [5    /1   ]  7.06665397037     0.000167446202
                                3.42836918        0.003362568505
                                1.43006411438     0.130532105798
                                0.571610928613    -0.096032824634
                                0.232196966975    -0.807329497232
[INPUT] 2    0    [5    /1   ]  7.06665397037     -0.311164169605
                                3.42836918        -0.386388805667
                                1.43006411438     -0.341437057173
                                0.571610928613    -0.20460821239
                                0.232196966975    -0.056129936831
[INPUT] N
[INPUT] 0    0    [4    /1   ]  6.1526903413      0.1506300537
                                1.823633228       -0.0360100734
                                0.567662887       -0.6942023212
                                0.1628222852      -0.3878929987
[INPUT] 1    0    [4    /1   ]  6.1526903413      -0.0950603476
                                1.823633228       -0.2918864295
                                0.567662887       -0.473905005
                                0.1628222852      -0.389341867

Ewald components = 6.77773183084737, -128.779455527716, 5.42224205397643
nuclear repulsion = -116.579481642892
number of shells = 10
number of NR pGTOs = 122
number of NR cGTOs = 26
basis = gth-szv
ecp = {}
CPU time:         0.44
lattice vectors  a1 [6.028226337, 0.000000000, 0.000000000]
                 a2 [-3.014113169, 5.220597148, 0.000000000]
                 a3 [0.000000000, 0.000000000, 9.807678586]
dimension = 3
low_dim_ft_type = None
Cell volume = 308.657
exp_to_discard = 0.1
rcut = 18.312728390691518 (nimgs = [4 4 2])
lattice sum = 461 cells
precision = 1e-08
pseudo = gth-pade
ke_cutoff = 887.7119060369721
    = [ 83  83 133] mesh (916237 PWs)
/groups/wag/pkozlows/miniconda3/envs/pyscf/lib/python3.11/site-packages/ase/dft/kpoints.py:357: UserWarning: Please do not use (kpts, x, X) = bandpath(...).  Use path = bandpath(...) and then kpts = path.kpts and (x, X, labels) = path.get_linear_kpoint_axis().
  warnings.warn('Please do not use (kpts, x, X) = bandpath(...).  '


******** <class 'pyscf.pbc.dft.krks.KRKS'> ********
method = KRKS-KohnShamDFT
initial guess = minao
damping factor = 0
level_shift factor = 0
DIIS = <class 'pyscf.scf.diis.CDIIS'>
diis_start_cycle = 1
diis_space = 8
SCF conv_tol = 1e-07
SCF conv_tol_grad = None
SCF max_cycles = 50
direct_scf = True
direct_scf_tol = 1e-13
chkfile to save SCF result = /tmp/tmpr15zwmtv
max_memory 451928 MB (current use 98 MB)


******** PBC SCF flags ********
N kpts = 8
kpts = [[0.         0.         0.        ]
 [0.         0.         0.3203197 ]
 [0.         0.60176883 0.        ]
 [0.         0.60176883 0.3203197 ]
 [0.5211471  0.30088442 0.        ]
 [0.5211471  0.30088442 0.3203197 ]
 [0.5211471  0.90265325 0.        ]
 [0.5211471  0.90265325 0.3203197 ]]
Exchange divergence treatment (exxdiv) = ewald
Ewald components = 8.76453321006536e-07, -0.162059015555054, 0.068912395876923
    madelung (= occupied orbital energy shift) = 0.18629148644961965
    Total energy shift due to Ewald probe charge = -1/2 * Nelec*madelung = -3.35324675609
DF object = <pyscf.pbc.df.fft.FFTDF object at 0x7f79c03b9950>
XC functionals = b3pw91
small_rho_cutoff = 1e-07
Uniform grid, mesh = [ 83  83 133]
<class 'pyscf.pbc.dft.krks.KRKS'> does not have attributes  nlcgrids nlc
Set gradient conv threshold to 0.000316228
    CPU time for setting up grids      8.18 sec, wall time      0.51 sec
nelec by numeric integration = 35.999750039896874
    CPU time for vxc    508.43 sec, wall time     16.70 sec
Ewald components = 8.76453321006536e-07, -0.162059015555054, 0.068912395876923
    CPU time for vj and vk  18886.75 sec, wall time   1298.68 sec
Ewald components = 6.77773183084737, -128.779455527716, 5.42224205397643
E1 = (-88.12776786407454-1.1264113459134018e-16j)  Ecoul = 61.47693287752237  Exc = -24.878211853564515
init E= -168.108528483009
cond(S) = [7.39940068 6.35510979 7.03288257 6.30438812 7.03288257 6.30438812
 7.03288257 6.30438812]
/groups/wag/pkozlows/miniconda3/envs/pyscf/lib/python3.11/site-packages/pyscf/pbc/gto/cell.py:243: UserWarning: Function cell.dumps drops attribute a because it is not JSON-serializable
  warnings.warn(msg)
    CPU time for initialize scf  19680.19 sec, wall time   1329.23 sec
HOMO = 0.250765896067  LUMO = 0.607301613588
     k-point                  mo_energy
   0 ( 0.000  0.000  0.000)   [-0.44227705 -0.36539496 -0.09328716 -0.09321073 -0.09321073 -0.08745354
 -0.08745354 -0.06725462 -0.06725462 -0.06274677 -0.06274677 -0.04927073
  0.00053397  0.21511882  0.21511882  0.24875281  0.2507659   0.2507659 ] [0.60730161 0.65411076 0.82715243 0.82715243 0.8434842  0.87557677
 0.87557677 0.898128  ]
   1 ( 0.000  0.000  0.500)   [-0.40698421 -0.40698387 -0.09090594 -0.09090594 -0.09090501 -0.09090501
 -0.08999488 -0.08999153 -0.06462276 -0.06462276 -0.06462205 -0.06462205
  0.1331392   0.13314053  0.23286772  0.23286772  0.23286848  0.23286848] [0.67819099 0.67819127 0.81683556 0.81683658 0.84938639 0.84938639
 0.84938651 0.84938651]
   2 ( 0.000  0.500  0.000)   [-0.36729812 -0.3429434  -0.0921476  -0.08639484 -0.07773036 -0.07557624
 -0.07256449 -0.06834214 -0.06354051 -0.0615983  -0.0509793  -0.05080098
  0.02910668  0.06949887  0.11076784  0.15460309  0.18725299  0.21551663] [0.69691351 0.73219777 0.76762112 0.84786115 0.86893398 0.87611896
 0.92925915 0.93142746]
   3 ( 0.000  0.500  0.500)   [-0.35367547 -0.35367502 -0.09130277 -0.09130181 -0.07977352 -0.07977307
 -0.0718956  -0.07189355 -0.06300284 -0.06300211 -0.04852719 -0.04852685
  0.02593235  0.02593253  0.18450193  0.1845025   0.18606791  0.18606882] [0.67203211 0.67203231 0.81495933 0.8149601  0.90165361 0.90165397
 0.90834737 0.90834833]
   4 ( 0.500  0.000  0.000)   [-0.36729812 -0.3429434  -0.0921476  -0.08639484 -0.07773036 -0.07557624
 -0.07256449 -0.06834214 -0.06354051 -0.0615983  -0.0509793  -0.05080098
  0.02910668  0.06949887  0.11076784  0.15460309  0.18725299  0.21551663] [0.69691351 0.73219777 0.76762112 0.84786115 0.86893398 0.87611896
 0.92925915 0.93142746]
   5 ( 0.500  0.000  0.500)   [-0.35367547 -0.35367502 -0.09130277 -0.09130181 -0.07977352 -0.07977307
 -0.0718956  -0.07189355 -0.06300284 -0.06300211 -0.04852719 -0.04852685
  0.02593235  0.02593253  0.18450193  0.1845025   0.18606791  0.18606882] [0.67203211 0.67203231 0.81495933 0.8149601  0.90165361 0.90165397
 0.90834737 0.90834833]
   6 ( 0.500  0.500  0.000)   [-0.36729812 -0.3429434  -0.0921476  -0.08639484 -0.07773036 -0.07557624
 -0.07256449 -0.06834214 -0.06354051 -0.0615983  -0.0509793  -0.05080098
  0.02910668  0.06949887  0.11076784  0.15460309  0.18725299  0.21551663] [0.69691351 0.73219777 0.76762112 0.84786115 0.86893398 0.87611896
 0.92925915 0.93142746]
   7 ( 0.500  0.500  0.500)   [-0.35367547 -0.35367502 -0.09130277 -0.09130181 -0.07977352 -0.07977307
 -0.0718956  -0.07189355 -0.06300284 -0.06300211 -0.04852719 -0.04852685
  0.02593235  0.02593253  0.18450193  0.1845025   0.18606791  0.18606882] [0.67203211 0.67203231 0.81495933 0.8149601  0.90165361 0.90165397
 0.90834737 0.90834833]
nelec by numeric integration = 35.99999999887703
    CPU time for vxc    218.66 sec, wall time      7.01 sec
Ewald components = 8.76453321006536e-07, -0.162059015555054, 0.068912395876923
    CPU time for vj and vk  15709.34 sec, wall time   1040.66 sec
Ewald components = 6.77773183084737, -128.779455527716, 5.42224205397643
E1 = (-87.88151790515913-1.0739042591063088e-16j)  Ecoul = 61.27552437881237  Exc = -125.14262495831751
cycle= 1 E= -268.328100127556  delta_E= -100  |g|=  248  |ddm|= 10.4
    CPU time for cycle= 1  15928.45 sec, wall time   1047.68 sec
HOMO = 0.491759743858  LUMO = 0.492049230227

WARN: HOMO 0.491759743858 == LUMO 0.492049230227

     k-point                  mo_energy
   0 ( 0.000  0.000  0.000)   [-1.63834786e+02 -1.38243941e+02 -1.07343070e+02 -5.97243558e+01
 -1.02737422e+01 -7.22320089e+00 -2.65480220e+00 -1.76204398e+00
 -1.25398188e+00 -5.75887467e-01 -4.97641247e-01 -4.11795462e-01
 -1.80371904e-01 -8.82746479e-02  1.25035997e-01  2.49415255e-01
  3.20123674e-01  4.27462405e-01] [0.60872229 0.74932923 0.77380073 0.82104995 1.72323856 2.72046609
 3.43422679 4.12092604]
   1 ( 0.000  0.000  0.500)   [-118.78055844  -58.89190144  -24.92442434  -18.2514635    -0.27305655
   -0.27063997   -0.26975953   -0.26963909   -0.26830713   -0.26392837
   -0.26302479   -0.26299589   -0.13739333   -0.13072323    0.31111376
    0.48922953    0.49175974] [0.49204923 0.49290071 0.7205227  0.78365433 0.79912731 0.88335663
 0.88396232 0.88399562 1.01968156]
   2 ( 0.000  0.500  0.000)   [-0.27892623 -0.27653431 -0.26881461 -0.26831712 -0.26604451 -0.26513006
 -0.26360345 -0.26329533 -0.26236735 -0.26126622 -0.05201194 -0.00285978
  0.15615201  0.21478618  0.25808833  0.33943     0.37993699  0.45556922] [0.80605142 0.82193386 0.93155914 0.93333496 1.04987715 1.07393404
 1.10430362 1.1367574 ]
   3 ( 0.000  0.500  0.500)   [-0.27732969 -0.27719766 -0.26933414 -0.26906464 -0.26568881 -0.26557566
 -0.26276717 -0.26263556 -0.26237632 -0.26214176 -0.0253156  -0.02523093
  0.13951594  0.13960697  0.38909603  0.3891445   0.40074186  0.40108554] [0.75843263 0.75844372 0.95013726 0.95031075 1.02733489 1.02741811
 1.13281427 1.13291913]
   4 ( 0.500  0.000  0.000)   [-0.27892014 -0.27656788 -0.26880707 -0.2682249  -0.26608587 -0.26515768
 -0.26360598 -0.26329619 -0.26237186 -0.26122923 -0.05205893 -0.0029112
  0.1561574   0.21476992  0.25801545  0.33940411  0.37990756  0.4554445 ] [0.80604076 0.82188282 0.93152937 0.93328833 1.0497961  1.07391209
 1.10426755 1.13673239]
   5 ( 0.500  0.000  0.500)   [-13.60790602  -0.27731629  -0.27300774  -0.26907355  -0.26744495
  -0.26540595  -0.26380299  -0.26276129  -0.26215796  -0.03057808
  -0.02548062   0.08421646   0.13948632   0.15165624   0.38892667
   0.39235906   0.40102557   0.40196011] [0.75582754 0.75845189 0.94985179 0.9509734  1.02735959 1.02780497
 1.13225722 1.13301709]
   6 ( 0.500  0.500  0.000)   [-6.86966514 -3.73611769 -0.27789609 -0.2694643  -0.26782919 -0.26647915
 -0.26518957 -0.26372889 -0.26295407 -0.26187239 -0.03123901  0.1198348
  0.12225358  0.19658663  0.2561052   0.33158817  0.3406686   0.40572639
  0.45456929] [0.81396655 0.91811448 0.93080885 1.0378907  1.07163853 1.10337895
 1.12949462]
   7 ( 0.500  0.500  0.500)   [-1.33948002e+02 -7.21989690e+01 -5.74795764e+01 -3.07592061e+01
 -1.39298795e+00 -2.76496517e-01 -2.68694410e-01 -2.65844875e-01
 -2.65278831e-01 -2.63239989e-01 -2.62224308e-01 -2.65412752e-02
  1.32224680e-01  1.37508774e-01  2.31711962e-01  3.88001843e-01
  3.99222842e-01  4.20051885e-01] [0.60107375 0.75704067 0.93873432 0.94670136 1.02721104 1.12059999
 1.12915241 2.71319581]
nelec by numeric integration = 35.99999999915972
    CPU time for vxc    243.60 sec, wall time      8.48 sec
Ewald components = 8.76453321006536e-07, -0.162059015555054, 0.068912395876923
    CPU time for vj and vk  14881.48 sec, wall time   1025.40 sec
Ewald components = 6.77773183084737, -128.779455527716, 5.42224205397643
E1 = (-84.13347527743198-1.0314362550362978e-16j)  Ecoul = 57.44032614480212  Exc = -24.33514479850067
cycle= 2 E= -167.607775574022  delta_E=  101  |g|= 10.3  |ddm|= 13.9
    CPU time for cycle= 2  15126.74 sec, wall time   1033.93 sec
HOMO = 0.471407699629  LUMO = 0.485649202809
     k-point                  mo_energy
   0 ( 0.000  0.000  0.000)   [-4.75903298 -2.9885904  -2.81372565 -1.63081108 -1.40663783 -1.17688268
 -1.13884597 -0.77190466 -0.64965359 -0.58353832 -0.50807732 -0.39820493
 -0.28726172 -0.22258185 -0.1161764  -0.03071648  0.35449913  0.4714077 ] [0.64060497 0.91886801 1.40281601 1.49734768 2.23094104 3.08467978
 4.32375986 4.72105245]
   1 ( 0.000  0.000  0.500)   [-0.57855931 -0.46763263 -0.41808605 -0.4076101  -0.39322333 -0.39247017
 -0.3841175  -0.24256482 -0.18375909 -0.16636817 -0.12572221 -0.10827535
 -0.09831832 -0.04272749 -0.01353164 -0.00658289  0.31143937  0.46135132] [0.4856492  0.60929018 0.70305718 0.71237633 0.76176446 0.84590255
 0.91540101 0.94966885]
   2 ( 0.000  0.500  0.000)   [-0.56280934 -0.40848192 -0.40340266 -0.39494338 -0.39107974 -0.37749961
 -0.17996682 -0.14119362 -0.13031552 -0.11262865 -0.10423513 -0.09750721
 -0.07082562 -0.04158543 -0.01845425  0.22903698  0.28557816  0.38748763] [0.56442189 0.66546057 0.7423985  0.81709233 0.85307522 0.90925015
 1.03659731 1.08644331]
   3 ( 0.000  0.500  0.500)   [-0.5624322  -0.40850149 -0.40349706 -0.39502593 -0.39106771 -0.37719037
 -0.18007243 -0.14185107 -0.13420201 -0.1138437  -0.1055636  -0.09547086
 -0.06759028 -0.04866784 -0.01793027  0.24364212  0.30584887  0.38277118] [0.55853222 0.67048608 0.74826773 0.76296674 0.81395741 0.931664
 1.03507386 1.09356949]
   4 ( 0.500  0.000  0.000)   [-0.56288853 -0.4091964  -0.40016197 -0.39803337 -0.39109218 -0.37817294
 -0.17926273 -0.1389707  -0.13467521 -0.11503205 -0.10346002 -0.0905586
 -0.06903945 -0.04289456 -0.02031768  0.22884631  0.28589042  0.3890402 ] [0.55521191 0.6696813  0.74573559 0.81671239 0.850691   0.90868529
 1.04042539 1.083835  ]
   5 ( 0.500  0.000  0.500)   [-0.56252305 -0.40922176 -0.40026831 -0.3980485  -0.39110691 -0.37789377
 -0.20072589 -0.16729141 -0.14137191 -0.1264478  -0.11514265 -0.08876342
 -0.06808559 -0.056118   -0.0195899   0.24406708  0.3048087   0.38428473] [0.55123766 0.67405208 0.75159379 0.7610933  0.81281343 0.92981473
 1.03893444 1.09107816]
   6 ( 0.500  0.500  0.000)   [-0.56259597 -0.41218968 -0.40156905 -0.39675659 -0.39014235 -0.37551062
 -0.18006769 -0.1477555  -0.13140248 -0.12603074 -0.10589812 -0.08767296
 -0.07227562 -0.04231249 -0.02929627  0.22033116  0.286471    0.39889691] [0.55698901 0.6690148  0.74475558 0.79254537 0.81791847 0.90883003
 1.02976068 1.07887609]
   7 ( 0.500  0.500  0.500)   [-0.64403861 -0.56230155 -0.47679986 -0.41222462 -0.40158907 -0.39679777
 -0.38769325 -0.3752956  -0.32178753 -0.17380464 -0.14258485 -0.10748076
 -0.07645465 -0.04711511 -0.0381286   0.10164112  0.23511324  0.30173894] [0.50547314 0.55764384 0.67504692 0.74003201 0.8118849  0.87437279
 0.92337961 1.08333258]
nelec by numeric integration = 35.99999999892955
    CPU time for vxc    216.52 sec, wall time      6.92 sec
Ewald components = 8.76453321006536e-07, -0.162059015555054, 0.068912395876923
    CPU time for vj and vk  14286.39 sec, wall time   1012.59 sec
Ewald components = 6.77773183084737, -128.779455527716, 5.42224205397643
E1 = (-85.37723027507442-1.0454758261370378e-16j)  Ecoul = 59.15016544431786  Exc = -25.180039536430797
cycle= 3 E= -167.986586010079  delta_E= -0.379  |g|= 8.95  |ddm|= 13.2
    CPU time for cycle= 3  14503.51 sec, wall time   1019.52 sec
HOMO = 0.487678618427  LUMO = 0.609598942424
     k-point                  mo_energy
   0 ( 0.000  0.000  0.000)   [-3.73948846 -2.65737125 -2.21720654 -1.60371868 -1.42123094 -1.10378994
 -0.79432037 -0.71571138 -0.60001394 -0.43509048 -0.38168949 -0.28320204
 -0.26004165 -0.12203433 -0.0414779   0.17196321  0.27510402] [0.61111105 0.67886242 1.07736031 1.29359267 1.40710939 1.67661145
 1.93821796 2.87686845 4.70391031]
   1 ( 0.000  0.000  0.500)   [-0.53557841 -0.39727441 -0.3912243  -0.38919997 -0.3853331  -0.37835349
 -0.32586249 -0.2581832  -0.23919159 -0.21530046 -0.2125603  -0.20664296
 -0.14811923  0.21701331  0.24602823  0.34734949  0.35556106  0.3732814 ] [0.60959894 0.69034368 0.75099953 0.80031176 0.80750864 0.83942284
 0.86564495 0.89894901]
   2 ( 0.000  0.500  0.000)   [-0.40455387 -0.39315417 -0.39114718 -0.38814118 -0.38115854 -0.24321011
 -0.22723061 -0.21691367 -0.21376881 -0.20911274 -0.15411989 -0.11488535
  0.08243917  0.1470123   0.18661381  0.24290973  0.28328607  0.33018717] [0.723316   0.77081139 0.83814484 0.86956535 0.93410389 0.9612497
 0.99660295 1.00026413]
   3 ( 0.000  0.500  0.500)   [-0.40454468 -0.39316568 -0.39129043 -0.38792823 -0.38125202 -0.24374155
 -0.22443785 -0.21667614 -0.21377491 -0.20921971 -0.1482289  -0.12332311
  0.06373035  0.1005592   0.27005     0.28753665  0.29454943  0.29767482] [0.68454879 0.71173667 0.86345872 0.86823036 0.91598415 0.95930447
 0.98883149 1.01211343]
   4 ( 0.500  0.000  0.000)   [-0.40020714 -0.39566414 -0.38934124 -0.38780316 -0.38544785 -0.24495368
 -0.22729859 -0.21766379 -0.21140583 -0.20734868 -0.15544446 -0.11576117
  0.08335763  0.14687245  0.18601635  0.24390246  0.28288584  0.33157478] [0.72123431 0.76949072 0.83822906 0.8709036  0.93388155 0.96177031
 0.99796577 0.99905426]
   5 ( 0.500  0.000  0.500)   [-0.40026829 -0.39571102 -0.38937994 -0.38763066 -0.38551933 -0.29290729
 -0.23204246 -0.22378606 -0.21616959 -0.20805825 -0.14865858 -0.1295913
  0.06407844  0.10059156  0.27116461  0.28730507  0.29560644  0.29743397] [0.68282988 0.71042845 0.86233597 0.86813893 0.91711487 0.96156198
 0.98914958 1.01060664]
   6 ( 0.500  0.500  0.000)   [-0.40235003 -0.39330405 -0.39033096 -0.38847766 -0.38418023 -0.25100609
 -0.23128393 -0.22674207 -0.21390493 -0.20311843 -0.15597978 -0.12425585
  0.07986864  0.14356738  0.18771285  0.24584523  0.28240349  0.33326664] [0.72210138 0.73883559 0.83471138 0.86943988 0.93247584 0.96115753
 0.99334707 0.99706258]
   7 ( 0.500  0.500  0.500)   [-0.66975896 -0.51289954 -0.4037189  -0.402224   -0.39321255 -0.38987827
 -0.38719051 -0.38119416 -0.22652286 -0.21259395 -0.18050894 -0.14883933
  0.03657607  0.06219198  0.10394399  0.27048161  0.28272041  0.29137979
  0.48767862] [0.68616633 0.79907024 0.86323155 0.86807415 0.91969891 0.98452149
 1.00655033]
nelec by numeric integration = 35.999999999034614
    CPU time for vxc    234.43 sec, wall time      7.50 sec
Ewald components = 8.76453321006536e-07, -0.162059015555054, 0.068912395876923
    CPU time for vj and vk  13600.34 sec, wall time    997.33 sec
Ewald components = 6.77773183084737, -128.779455527716, 5.42224205397643
E1 = (-85.25348244795939-1.0360144681162073e-16j)  Ecoul = 58.30896918884654  Exc = -24.780794056785016
cycle= 4 E= -168.30478895879  delta_E= -0.318  |g|= 7.23  |ddm|= 7.76
    CPU time for cycle= 4  13835.38 sec, wall time   1004.84 sec
HOMO = 0.516284205038  LUMO = 0.524141574412
     k-point                  mo_energy
   0 ( 0.000  0.000  0.000)   [-3.04339575 -2.50411057 -2.01692823 -1.51623313 -1.14463254 -1.02438019
 -0.7635717  -0.69260479 -0.52098019 -0.43981655 -0.26195742 -0.19350811
 -0.12310662 -0.09627322 -0.05966821  0.06228537  0.37572006  0.51628421] [0.67931312 0.91739628 1.1623254  1.43120838 1.77297238 2.36629761
 2.41039452 4.46093864]
   1 ( 0.000  0.000  0.500)   [-4.39894333e-01 -3.98120707e-01 -3.91456029e-01 -3.87486699e-01
 -3.85816349e-01 -3.78238696e-01 -2.90678171e-01 -2.68127166e-01
 -2.19575964e-01 -2.07633777e-01 -2.03643020e-01 -1.88587498e-01
  2.78649617e-04  2.00393061e-01  3.09140557e-01  3.15502670e-01
  3.20740606e-01  3.99341473e-01] [0.65886691 0.67529672 0.76961405 0.79617454 0.79967799 0.8498231
 0.87440592 0.88342826]
   2 ( 0.000  0.500  0.000)   [-0.40673634 -0.39291441 -0.39193564 -0.38695308 -0.3814522  -0.23006822
 -0.22888207 -0.20831958 -0.20763177 -0.20187274 -0.16763592 -0.09859876
  0.07262371  0.15513227  0.18477756  0.22903622  0.28482324  0.34373464] [0.70880771 0.78457441 0.84194535 0.86312362 0.9339216  0.94078497
 1.00447909 1.023297  ]
   3 ( 0.000  0.500  0.500)   [-0.40671805 -0.39292221 -0.39207902 -0.38681963 -0.38154963 -0.23135039
 -0.22345315 -0.2084429  -0.2077266  -0.20193538 -0.16932236 -0.09997892
  0.05094073  0.10900902  0.24339321  0.28266183  0.30380635  0.32075675] [0.67287758 0.72399539 0.85119254 0.8794952  0.90107738 0.96961105
 0.97576946 1.03707714]
   4 ( 0.500  0.000  0.000)   [-0.40203032 -0.39632487 -0.38989361 -0.38655678 -0.38564397 -0.23183399
 -0.22841318 -0.2090857  -0.20524291 -0.20101451 -0.16794518 -0.09948491
  0.07283046  0.15482878  0.18445025  0.229529    0.2843858   0.34503152] [0.70843217 0.7837278  0.84170374 0.86395905 0.93402119 0.94092403
 1.00593964 1.02181128]
   5 ( 0.500  0.000  0.500)   [-0.4020811  -0.39638235 -0.38994481 -0.38640775 -0.38571369 -0.26530988
 -0.2257381  -0.21813693 -0.20818194 -0.20312384 -0.16915895 -0.10404469
  0.05052596  0.10880146  0.2438286   0.28253552  0.30366374  0.32207511] [0.67194985 0.72314719 0.85150231 0.87911079 0.90159558 0.96936143
 0.97763685 1.03582789]
   6 ( 0.500  0.500  0.000)   [-0.40414393 -0.39321917 -0.39001197 -0.38895324 -0.38416044 -0.23602587
 -0.22859581 -0.21900476 -0.20660093 -0.19770549 -0.16724309 -0.10689742
  0.06952216  0.15213605  0.18572396  0.23027833  0.28339155  0.34726826] [0.71013479 0.76090095 0.83918266 0.86331855 0.93203201 0.9400472
 1.00181351 1.02040401]
   7 ( 0.500  0.500  0.500)   [-0.52278968 -0.40419167 -0.39519132 -0.39227186 -0.38981689 -0.38659398
 -0.3615266  -0.33908292 -0.22327741 -0.202394   -0.18351877 -0.17032116
  0.04833952  0.09798186  0.15681996  0.24360441  0.27575836  0.3034882 ] [0.52414157 0.67475152 0.83844492 0.85121893 0.88070578 0.90542573
 0.96468916 1.03186679]
nelec by numeric integration = 35.999999999018875
    CPU time for vxc    229.55 sec, wall time      7.45 sec
Ewald components = 8.76453321006536e-07, -0.162059015555054, 0.068912395876923
    CPU time for vj and vk  13912.27 sec, wall time   1026.71 sec
Ewald components = 6.77773183084737, -128.779455527716, 5.42224205397643
E1 = (-85.76455580830819-1.0478856348719763e-16j)  Ecoul = 58.72343564692984  Exc = -155.41680669732523
cycle= 5 E= -299.037408501595  delta_E= -131  |g|=  488  |ddm|= 5.44
    CPU time for cycle= 5  14142.76 sec, wall time   1034.19 sec
HOMO = 0.51435998813  LUMO = 0.523216565799
     k-point                  mo_energy
   0 ( 0.000  0.000  0.000)   [-3.04873953 -2.50531574 -2.01907725 -1.52334722 -1.15236873 -1.02947927
 -0.76533433 -0.69463702 -0.52423395 -0.44477621 -0.2626253  -0.1985045
 -0.12501267 -0.09871732 -0.06208974  0.06030527  0.37569387  0.51435999] [0.67651286 0.91928596 1.16146004 1.42485044 1.77044775 2.35450668
 2.4066635  4.45099688]
   1 ( 0.000  0.000  0.500)   [-0.44521607 -0.3980529  -0.3914207  -0.38747943 -0.38577881 -0.37819267
 -0.29187269 -0.26785165 -0.23744343 -0.21679344 -0.20795594 -0.19200531
 -0.00208158  0.15975935  0.29752965  0.3052731   0.32096221  0.39891671] [0.65752317 0.67367411 0.76558553 0.79194502 0.79997306 0.82547778
 0.84687196 0.8740912 ]
   2 ( 0.000  0.500  0.000)   [-0.40662089 -0.39287617 -0.3919044  -0.38696107 -0.38139251 -0.24767466
 -0.23568731 -0.21915898 -0.2131574  -0.20548947 -0.17020153 -0.10418212
  0.05786064  0.14140172  0.17455839  0.22314048  0.2754145   0.33967513] [0.69927699 0.7799608  0.80660847 0.85673672 0.90380149 0.91829742
 0.9997774  1.02029074]
   3 ( 0.000  0.500  0.500)   [-0.40657977 -0.39286805 -0.39203089 -0.3867951  -0.38148421 -0.23163473
 -0.22345404 -0.2088005  -0.20809232 -0.20231058 -0.16865267 -0.10029839
  0.05157891  0.10894569  0.24449734  0.28331387  0.30377198  0.32041467] [0.67336905 0.72378865 0.85180707 0.87933824 0.90177381 0.9704569
 0.97549527 1.03678746]
   4 ( 0.500  0.000  0.000)   [-0.4018872  -0.39630894 -0.38985641 -0.38655139 -0.38558556 -0.24855519
 -0.23022968 -0.21176792 -0.20867636 -0.20380695 -0.16775158 -0.10351374
  0.06078624  0.15329273  0.1836416   0.21938585  0.28223493  0.34186359] [0.70595707 0.78312279 0.83395731 0.8538222  0.90854289 0.93292619
 1.00116141 1.02050789]
   5 ( 0.500  0.000  0.500)   [-0.40193246 -0.39633139 -0.38990279 -0.38638326 -0.38565066 -0.26644266
 -0.2257336  -0.21893745 -0.20855494 -0.20351058 -0.16847758 -0.10443404
  0.05080369  0.10874031  0.24428564  0.28318521  0.30348661  0.32172833] [0.6724498  0.72293586 0.85164354 0.87893242 0.90150743 0.96923696
 0.9773416  1.03552431]
   6 ( 0.500  0.500  0.000)   [-0.40402019 -0.39316321 -0.38996015 -0.38890427 -0.38411495 -0.23692603
 -0.22877128 -0.22009326 -0.20771148 -0.19842194 -0.16693072 -0.10716046
  0.0698209   0.15208617  0.18583445  0.22956911  0.28331645  0.34665096] [0.71051999 0.76061014 0.83926224 0.86228811 0.93186437 0.94012226
 1.00093909 1.02009677]
   7 ( 0.500  0.500  0.500)   [-0.54066194 -0.40409146 -0.39621285 -0.39246885 -0.38980386 -0.38670661
 -0.36627134 -0.34575338 -0.2235307  -0.2031048  -0.18405559 -0.16983717
  0.04792148  0.09643858  0.1555372   0.22542688  0.27013185  0.30288906] [0.52321657 0.67509958 0.83616282 0.84387951 0.87966985 0.88643522
 0.96208381 1.03130943]
nelec by numeric integration = 35.99999999901723
    CPU time for vxc    236.58 sec, wall time      7.71 sec
Ewald components = 8.76453321006536e-07, -0.162059015555054, 0.068912395876923
    CPU time for vj and vk  14008.19 sec, wall time   1020.80 sec
Ewald components = 6.77773183084737, -128.779455527716, 5.42224205397643
E1 = (-85.76303913460028-1.0484235007934828e-16j)  Ecoul = 58.74231404681619  Exc = -24.8620479269345
cycle= 6 E= -168.46225465761  delta_E=  131  |g|= 8.26  |ddm|= 0.517
    CPU time for cycle= 6  14246.52 sec, wall time   1028.57 sec
HOMO = 0.461794673562  LUMO = 0.530054256892
     k-point                  mo_energy
   0 ( 0.000  0.000  0.000)   [-3.18277519 -2.51153201 -2.02269604 -1.46007339 -1.09720902 -0.96089782
 -0.76178126 -0.65720011 -0.47703049 -0.43984277 -0.24979335 -0.21847705
 -0.1973167  -0.08915382  0.02394933  0.13918361  0.36449241  0.46179467] [0.68840742 0.90178301 1.16013502 1.39188746 1.72851082 2.25823446
 2.41710822 4.49364506]
   1 ( 0.000  0.000  0.500)   [-0.43622007 -0.38991557 -0.38401694 -0.37996848 -0.37824457 -0.37080377
 -0.28801246 -0.26737187 -0.22883963 -0.21445408 -0.20473436 -0.19089897
  0.00156705  0.16569039  0.29877144  0.3049449   0.31709493  0.39615645] [0.66104606 0.67506709 0.76612454 0.79345224 0.80071779 0.8345674
 0.84776669 0.87361964]
   2 ( 0.000  0.500  0.000)   [-0.39929478 -0.38513934 -0.38437729 -0.37895887 -0.37372433 -0.24103408
 -0.23170827 -0.21439222 -0.20885017 -0.20155367 -0.16955687 -0.10392829
  0.06016746  0.14301174  0.17460347  0.22255042  0.27531272  0.33868192] [0.70128482 0.78115792 0.81379756 0.85803824 0.90843375 0.91987474
 0.99964372 1.0192767 ]
   3 ( 0.000  0.500  0.500)   [-0.39925754 -0.38513531 -0.38448847 -0.37878202 -0.37381412 -0.2294156
 -0.221373   -0.20527835 -0.20430898 -0.19879412 -0.16880486 -0.10059866
  0.05097462  0.10757688  0.24243079  0.28082505  0.30193752  0.31905242] [0.67338444 0.72389378 0.85115221 0.87934609 0.90135293 0.96908468
 0.97478801 1.03531453]
   4 ( 0.500  0.000  0.000)   [-0.39480896 -0.38833119 -0.382402   -0.37869758 -0.37771453 -0.24223274
 -0.22817413 -0.20750693 -0.20465242 -0.20033748 -0.16733494 -0.10364479
  0.06252558  0.15246095  0.18230588  0.21941083  0.28082692  0.34036808] [0.70655396 0.78301275 0.83521769 0.85586668 0.9131496  0.9322289
 1.0008415  1.01962551]
   5 ( 0.500  0.000  0.500)   [-0.39485685 -0.38835459 -0.38245159 -0.37850706 -0.37777176 -0.2622508
 -0.22354229 -0.21581197 -0.20477596 -0.20025625 -0.16861517 -0.10508801
  0.05031575  0.10782925  0.24211681  0.28080919  0.30164633  0.32007755] [0.67245635 0.72292225 0.85100877 0.87882512 0.90123863 0.9680732
 0.97646597 1.0344588 ]
   6 ( 0.500  0.500  0.000)   [-0.39661873 -0.38528868 -0.38213171 -0.38143941 -0.37644648 -0.23424081
 -0.22674275 -0.21644976 -0.2041894  -0.19494072 -0.1666178  -0.10774048
  0.06904511  0.15130648  0.18432506  0.22784206  0.28169424  0.34431588] [0.71075277 0.76257429 0.83859852 0.86259956 0.93091513 0.93929324
 1.00054655 1.01928307]
   7 ( 0.500  0.500  0.500)   [-0.52810092 -0.39667521 -0.38927067 -0.38451987 -0.38211705 -0.37929486
 -0.35851431 -0.34016025 -0.22119918 -0.19953397 -0.18198294 -0.17005132
  0.04734111  0.09648647  0.15609681  0.22697969  0.26925482  0.30106894] [0.53005426 0.6753295  0.8386014  0.84495692 0.8797577  0.88951079
 0.96121379 1.03048965]
nelec by numeric integration = 35.99999999900974
    CPU time for vxc    226.84 sec, wall time      7.33 sec
Ewald components = 8.76453321006536e-07, -0.162059015555054, 0.068912395876923
    CPU time for vj and vk  14515.65 sec, wall time   1009.70 sec
Ewald components = 6.77773183084737, -128.779455527716, 5.42224205397643
E1 = (-85.67295702861693-1.0471402458783925e-16j)  Ecoul = 58.64140269485254  Exc = -24.857704005996712
cycle= 7 E= -168.468739982653  delta_E= -0.00649  |g|= 6.65  |ddm|= 1.77
    CPU time for cycle= 7  14743.03 sec, wall time   1017.05 sec
HOMO = 0.392674307964  LUMO = 0.552718553445
     k-point                  mo_energy
   0 ( 0.000  0.000  0.000)   [-3.3943061  -2.59243164 -2.0554489  -1.41213655 -1.06897135 -0.91323572
 -0.7691995  -0.65645779 -0.47319163 -0.44035238 -0.33184709 -0.23121751
 -0.13875836 -0.03762252  0.06818403  0.33024084  0.33860138  0.39267431] [0.74158854 0.82605178 1.15894962 1.4374932  1.77920994 2.17421464
 2.62714751 4.68326723]
   1 ( 0.000  0.000  0.500)   [-0.4115312  -0.37865061 -0.37388386 -0.36906299 -0.36857298 -0.3586938
 -0.28931051 -0.25973835 -0.24166143 -0.22768815 -0.2232067  -0.20159793
  0.05208323  0.17552848  0.30550982  0.3198883   0.33285633  0.38547716] [0.68763552 0.68841608 0.76022419 0.80294    0.8096566  0.84074026
 0.84288517 0.86546012]
   2 ( 0.000  0.500  0.000)   [-0.38864223 -0.37497272 -0.37300317 -0.36805154 -0.36234081 -0.25695411
 -0.24250794 -0.23238545 -0.22581493 -0.21882818 -0.16469635 -0.11074889
  0.0701145   0.14137232  0.17483052  0.2337057   0.27463664  0.3344393 ] [0.71428325 0.7745131  0.81901726 0.86379785 0.91582325 0.92326338
 0.99700413 1.00987122]
   3 ( 0.000  0.500  0.500)   [-0.3886248  -0.3749508  -0.37311031 -0.367806   -0.36243951 -0.24501879
 -0.23214786 -0.22352709 -0.2216486  -0.21712936 -0.1612086  -0.1102874
  0.06041984  0.10167117  0.25759918  0.28684865  0.29933833  0.31018825] [0.68293    0.71825409 0.85872064 0.87604307 0.91274965 0.96639468
 0.97998074 1.02684304]
   4 ( 0.500  0.000  0.000)   [-0.3842446  -0.37754576 -0.37157755 -0.36790605 -0.36629159 -0.25789228
 -0.2364033  -0.22518932 -0.22337797 -0.21918736 -0.16352274 -0.10973893
  0.07201414  0.14837009  0.1839304   0.23104072  0.28134516  0.33532375] [0.71842559 0.77516794 0.8380495  0.86178861 0.92483385 0.93458935
 0.99729562 1.01118533]
   5 ( 0.500  0.000  0.500)   [-0.38429426 -0.37755122 -0.37161495 -0.36770768 -0.36632471 -0.27087144
 -0.23518562 -0.23106911 -0.22280425 -0.21877586 -0.16095534 -0.11401943
  0.06045169  0.1029173   0.2573501   0.28666295  0.29890624  0.3106693 ] [0.68135045 0.71752881 0.85843584 0.8753049  0.91234926 0.96757137
 0.97943109 1.02672524]
   6 ( 0.500  0.500  0.000)   [-0.38604668 -0.37471015 -0.37202152 -0.36924669 -0.36546481 -0.24902054
 -0.23566418 -0.23289398 -0.22194328 -0.21366003 -0.16363504 -0.11294393
  0.07869775  0.14827395  0.1855864   0.23820517  0.28261275  0.33922199] [0.72043932 0.75904448 0.84053192 0.86817619 0.93280292 0.9534804
 0.99844054 1.0115043 ]
   7 ( 0.500  0.500  0.500)   [-0.48483448 -0.38608167 -0.37497184 -0.37332488 -0.37063561 -0.36681421
 -0.34364143 -0.31528461 -0.23145393 -0.2161389  -0.19983127 -0.16190945
  0.0589671   0.09545485  0.17896047  0.24250339  0.27614017  0.2984268 ] [0.55271855 0.68287523 0.8481785  0.8536889  0.87655021 0.89930567
 0.97438303 1.02301532]
nelec by numeric integration = 35.99999999901001
    CPU time for vxc    229.85 sec, wall time      7.38 sec
Ewald components = 8.76453321006536e-07, -0.162059015555054, 0.068912395876923
    CPU time for vj and vk  14051.99 sec, wall time    974.52 sec
Ewald components = 6.77773183084737, -128.779455527716, 5.42224205397643
E1 = (-85.50538040991985-1.0512589435844166e-16j)  Ecoul = 58.434688259296536  Exc = -24.818896895410276
cycle= 8 E= -168.469070688925  delta_E= -0.000331  |g|= 5.14  |ddm|=  1.9
    CPU time for cycle= 8  14282.77 sec, wall time    981.93 sec
HOMO = 0.455052875928  LUMO = 0.558248890701
     k-point                  mo_energy
   0 ( 0.000  0.000  0.000)   [-3.35077132 -2.54305773 -2.06392474 -1.39105786 -1.13190116 -0.91910641
 -0.74202998 -0.66323825 -0.5152002  -0.42773188 -0.25600163 -0.23410925
 -0.15138422 -0.01681759  0.07696681  0.31581424  0.35340384  0.45505288] [0.66607256 0.86381065 1.12295612 1.35420051 1.81815744 2.15961233
 2.67949173 4.64925462]
   1 ( 0.000  0.000  0.500)   [-0.40498771 -0.37601301 -0.37131    -0.36646897 -0.36610854 -0.35579602
 -0.28772024 -0.25901822 -0.240702   -0.22834886 -0.22388544 -0.20283531
  0.05828543  0.17706915  0.30579651  0.32020601  0.33247545  0.38244838] [0.68965599 0.69218853 0.75985021 0.80417001 0.81061971 0.8424995
 0.84300519 0.86437401]
   2 ( 0.000  0.500  0.000)   [-0.38623457 -0.37232007 -0.37033716 -0.36540464 -0.35950481 -0.25686642
 -0.24236587 -0.23267872 -0.22604466 -0.2191276  -0.16453194 -0.11204962
  0.07103885  0.1405972   0.17454597  0.23388315  0.27386497  0.332951  ] [0.71578008 0.77373945 0.82030874 0.86436265 0.91654112 0.92421283
 0.99622397 1.00795276]
   3 ( 0.000  0.500  0.500)   [-0.38621988 -0.37229781 -0.37044001 -0.36514414 -0.35960459 -0.24593674
 -0.23241245 -0.22410862 -0.22201337 -0.21757204 -0.16093849 -0.11196442
  0.06087822  0.10024459  0.25796679  0.28614066  0.2978426   0.30813142] [0.68370143 0.71744884 0.85900492 0.8752542  0.91345003 0.96491799
 0.9801131  1.02485608]
   4 ( 0.500  0.000  0.000)   [-0.38176818 -0.37491365 -0.3689589  -0.36527781 -0.36346984 -0.25777399
 -0.2365171  -0.22544258 -0.22388787 -0.21981925 -0.16345028 -0.11105787
  0.07282108  0.14720111  0.1832341   0.23137555  0.28036504  0.33362618] [0.71949495 0.77410828 0.83788373 0.86253409 0.92632516 0.93442528
 0.99638776 1.00935558]
   5 ( 0.500  0.000  0.500)   [-0.38181791 -0.37491904 -0.36899362 -0.36506607 -0.36350175 -0.27016302
 -0.23553294 -0.23143164 -0.22320105 -0.21945264 -0.16067495 -0.11569746
  0.06100477  0.10165376  0.25769291  0.28598829  0.29740053  0.30846928] [0.68204219 0.71671883 0.85870633 0.87448939 0.91303651 0.9660066
 0.97970009 1.0248928 ]
   6 ( 0.500  0.500  0.000)   [-0.38358449 -0.37210025 -0.36938388 -0.36649698 -0.36274388 -0.24962001
 -0.23588492 -0.23320118 -0.222422   -0.2142682  -0.16372816 -0.11416964
  0.07908649  0.14736271  0.18477076  0.23804376  0.28168255  0.33721603] [0.72116728 0.75926638 0.84011792 0.8685191  0.93219775 0.95423275
 0.99774411 1.00985132]
   7 ( 0.500  0.500  0.500)   [-0.47537319 -0.38361448 -0.37230287 -0.37058574 -0.36783985 -0.36394719
 -0.33958339 -0.31066852 -0.23168964 -0.21660502 -0.2005601  -0.16165525
  0.05969092  0.09482056  0.18136862  0.24365884  0.27597043  0.29688779] [0.55824889 0.6834892  0.8494649  0.85521391 0.87574218 0.90073787
 0.97496716 1.02138085]
nelec by numeric integration = 35.999999999011216
    CPU time for vxc    207.68 sec, wall time      6.53 sec
Ewald components = 8.76453321006536e-07, -0.162059015555054, 0.068912395876923
    CPU time for vj and vk  13229.57 sec, wall time    934.17 sec
Ewald components = 6.77773183084737, -128.779455527716, 5.42224205397643
E1 = (-85.54907466687732-1.0511530644660098e-16j)  Ecoul = 58.469751525186545  Exc = -24.81800267437813
cycle= 9 E= -168.476807458961  delta_E= -0.00774  |g|= 5.01  |ddm|= 1.23
    CPU time for cycle= 9  13443.03 sec, wall time    940.89 sec
HOMO = 0.550690323962  LUMO = 0.684668927819
     k-point                  mo_energy
   0 ( 0.000  0.000  0.000)   [-3.36522198 -2.59743247 -2.02321811 -1.30641922 -1.03390745 -0.80311399
 -0.63268431 -0.51130581 -0.46301072 -0.36889259 -0.30862357 -0.17252348
 -0.09657092  0.10098117  0.25580071  0.33684391  0.37801648  0.55069032] [0.69651325 0.90918774 1.16116018 1.46882301 1.88497102 2.16882119
 2.80633239 4.69660744]
   1 ( 0.000  0.000  0.500)   [-0.37291488 -0.36828115 -0.36323644 -0.36311932 -0.35242694 -0.26920341
 -0.24115255 -0.23190495 -0.22989343 -0.22522578 -0.22169279 -0.20301023
  0.18302373  0.22770947  0.3259629   0.33775534  0.37116021  0.37878786] [0.6939172  0.74557114 0.80948418 0.81332488 0.84554132 0.85557876
 0.86186266 0.89443203]
   2 ( 0.000  0.500  0.000)   [-0.38293539 -0.36924163 -0.36731361 -0.36249012 -0.35615771 -0.25935367
 -0.2442359  -0.23590675 -0.22926001 -0.22254656 -0.16181694 -0.11373457
  0.07478653  0.14018612  0.17573375  0.23726399  0.27428921  0.33191747] [0.71993772 0.77162629 0.8236516  0.86633686 0.91827884 0.92903434
 0.99585148 1.00477683]
   3 ( 0.000  0.500  0.500)   [-0.38292385 -0.3692187  -0.36741691 -0.3622083  -0.35625846 -0.24952084
 -0.23481192 -0.22790368 -0.22553641 -0.22114754 -0.15705377 -0.11512889
  0.06404262  0.09826981  0.26302767  0.28837879  0.2966252   0.30475106] [0.68647694 0.71560122 0.86165036 0.87372508 0.91722188 0.9621596
 0.9841532  1.02181776]
   4 ( 0.500  0.000  0.000)   [-0.37842841 -0.37184447 -0.36596999 -0.36231464 -0.36018994 -0.26027776
 -0.23838228 -0.22877447 -0.2274712  -0.22371839 -0.16094624 -0.11269767
  0.0761885   0.14591277  0.18384927  0.23510454  0.28072072  0.33236363] [0.72339098 0.77158521 0.83893814 0.86475883 0.9302268  0.93701273
 0.99578009 1.00636269]
   5 ( 0.500  0.000  0.500)   [-0.3784832  -0.37185151 -0.36599895 -0.36204055 -0.36022237 -0.24937842
 -0.23480692 -0.2272363  -0.22542193 -0.22272803 -0.15671941 -0.11613031
  0.06423571  0.099858    0.26278351  0.28820941  0.29617222  0.30501797] [0.6849046  0.71503422 0.86138867 0.87296946 0.91671968 0.96315397
 0.98379909 1.02202692]
   6 ( 0.500  0.500  0.000)   [-0.38029214 -0.36899089 -0.36634258 -0.36336672 -0.35956171 -0.25039832
 -0.23790901 -0.22776464 -0.22594214 -0.21873343 -0.16047655 -0.10948818
  0.08241949  0.14654116  0.18531917  0.24101094  0.28203653  0.33584775] [0.72487032 0.76698097 0.84171198 0.87013002 0.93337608 0.9586745
 0.99741787 1.00787657]
   7 ( 0.500  0.500  0.500)   [-0.38037164 -0.36905346 -0.36633632 -0.36332176 -0.35944223 -0.25292977
 -0.24191813 -0.23060515 -0.22872955 -0.21899486 -0.15694771 -0.11459079
  0.06378227  0.09760504  0.24989398  0.28357068  0.29624226  0.31014629] [0.68466893 0.70299297 0.85485735 0.87389394 0.90289539 0.95725317
 0.98262623 1.02090167]
nelec by numeric integration = 35.9999999990201
    CPU time for vxc    229.14 sec, wall time      7.79 sec
Ewald components = 8.76453321006536e-07, -0.162059015555054, 0.068912395876923
    CPU time for vj and vk  13802.43 sec, wall time    992.89 sec
Ewald components = 6.77773183084737, -128.779455527716, 5.42224205397643
E1 = (-85.56652342665407-1.0657657062951265e-16j)  Ecoul = 58.40222435939032  Exc = -24.766870341426596
cycle= 10 E= -168.510651051582  delta_E= -0.0338  |g|= 7.72  |ddm|= 2.31
    CPU time for cycle= 10  14032.58 sec, wall time   1000.71 sec
HOMO = 0.580414707846  LUMO = 0.657117362214
     k-point                  mo_energy
   0 ( 0.000  0.000  0.000)   [-3.23028684 -2.62164973 -2.02566639 -1.48328766 -1.01391776 -0.83589947
 -0.69653369 -0.51477759 -0.4610293  -0.35932589 -0.30152718 -0.14416746
 -0.05185472  0.07717833  0.20751597  0.33859263  0.3680156   0.58041471] [0.65711736 0.89591774 1.06823715 1.56254545 1.80988684 2.15536367
 2.90164302 4.34793096]
   1 ( 0.000  0.000  0.500)   [-0.35868744 -0.35480853 -0.35033666 -0.34937714 -0.33841187 -0.2782274
 -0.25345644 -0.23940078 -0.23229346 -0.22874997 -0.22441357 -0.21286224
  0.17767018  0.21803807  0.3435347   0.34900209  0.35844053  0.36073068] [0.70932807 0.73216299 0.8165645  0.8246082  0.83203338 0.84545171
 0.85191501 0.89191911]
   2 ( 0.000  0.500  0.000)   [-0.36810515 -0.35550833 -0.3540334  -0.35002967 -0.34185228 -0.27692483
 -0.25740858 -0.24569189 -0.23639396 -0.22938152 -0.15386219 -0.11883978
  0.07951198  0.13153342  0.17188962  0.24388601  0.26881524  0.32670512] [0.7282281  0.76143881 0.81450203 0.86921369 0.90883365 0.93008488
 0.98883722 0.99324206]
   3 ( 0.000  0.500  0.500)   [-0.3680965  -0.3554767  -0.35409277 -0.34956647 -0.34194575 -0.25881438
 -0.23893241 -0.23566029 -0.23246654 -0.22798535 -0.13820492 -0.12813261
  0.07674953  0.08930842  0.28434654  0.28910368  0.29034148  0.29910196] [0.69800281 0.70813388 0.86631134 0.87379538 0.93327056 0.95080473
 1.00247808 1.00862029]
   4 ( 0.500  0.000  0.000)   [-0.36349749 -0.35805421 -0.35286626 -0.34977973 -0.34598781 -0.27670765
 -0.24180432 -0.23845459 -0.23519992 -0.23225332 -0.15268843 -0.11701136
  0.08097915  0.13896007  0.18510488  0.24121959  0.2814659   0.32591073] [0.73688578 0.76158657 0.8386488  0.86670791 0.93159721 0.93970422
 0.99098722 0.9927255 ]
   5 ( 0.500  0.000  0.500)   [-0.36358456 -0.35803487 -0.35285848 -0.34927633 -0.34602321 -0.25830504
 -0.23860028 -0.23380272 -0.23336523 -0.23119307 -0.13745667 -0.12928087
  0.07662798  0.09135586  0.28359064  0.28903737  0.28981655  0.29894383] [0.6964993  0.70796962 0.86574045 0.87341968 0.932076   0.95132063
 1.0017239  1.00909401]
   6 ( 0.500  0.500  0.000)   [-0.3657087  -0.35516376 -0.35294815 -0.35007486 -0.34593494 -0.2597584
 -0.2417857  -0.23557639 -0.2330509  -0.22706083 -0.15108687 -0.11403899
  0.08997076  0.14318322  0.18694971  0.24805474  0.28405989  0.33232596] [0.73921223 0.76072806 0.84332006 0.87490951 0.93663871 0.97476157
 0.99668306 0.99840164]
   7 ( 0.500  0.500  0.500)   [-0.36581251 -0.35520975 -0.35288414 -0.34996329 -0.34583225 -0.26450761
 -0.25555837 -0.23828347 -0.23570349 -0.22930414 -0.13781255 -0.12911958
  0.07581487  0.08968049  0.26310832  0.28963329  0.29083979  0.291694  ] [0.69514686 0.70219252 0.86158705 0.86678414 0.90949198 0.94804313
 0.99950583 1.00823105]
nelec by numeric integration = 35.99999999903273
    CPU time for vxc    223.05 sec, wall time      7.16 sec
Ewald components = 8.76453321006536e-07, -0.162059015555054, 0.068912395876923
    CPU time for vj and vk  13879.17 sec, wall time    952.27 sec
Ewald components = 6.77773183084737, -128.779455527716, 5.42224205397643
E1 = (-85.6171629789579-1.064867321975445e-16j)  Ecoul = 58.4407295401323  Exc = -24.766091989310617
cycle= 11 E= -168.522007071028  delta_E= -0.0114  |g|= 6.87  |ddm|= 2.82
    CPU time for cycle= 11  14103.27 sec, wall time    959.46 sec
HOMO = 0.617801238144  LUMO = 0.671308758606
     k-point                  mo_energy
   0 ( 0.000  0.000  0.000)   [-3.29350359 -2.73254918 -2.16279744 -1.60477196 -0.99552275 -0.82679459
 -0.70055266 -0.51132188 -0.47132185 -0.34600406 -0.30733625 -0.16903709
  0.01364557  0.08955094  0.22464004  0.28541092  0.38310933  0.61780124] [0.67130876 0.86874279 0.92577106 1.49878173 1.79738675 2.17526377
 3.24869227 4.56112222]
   1 ( 0.000  0.000  0.500)   [-0.34949367 -0.3462538  -0.34192831 -0.34084365 -0.32949998 -0.27382086
 -0.2363643  -0.2293564  -0.22347456 -0.22093477 -0.21866883 -0.20329086
  0.18940302  0.21664773  0.31058532  0.31388765  0.3638337   0.36671933] [0.69315976 0.74526355 0.81296535 0.81419491 0.85522383 0.85804549
 0.8664868  0.89307284]
   2 ( 0.000  0.500  0.000)   [-0.36314448 -0.3462675  -0.34448222 -0.33944456 -0.33271514 -0.25019725
 -0.2390755  -0.22789118 -0.22336589 -0.21837538 -0.17116012 -0.1184509
  0.07465101  0.13622083  0.17301186  0.22721756  0.26912834  0.32212812] [0.72175096 0.77060912 0.83212416 0.86667139 0.92141597 0.94037762
 0.99063766 0.99823123]
   3 ( 0.000  0.500  0.500)   [-0.3631204  -0.34623184 -0.34458175 -0.33905827 -0.33281637 -0.2493561
 -0.23460029 -0.22614507 -0.22237458 -0.21777063 -0.16990075 -0.1209306
  0.05766064  0.0909361   0.24697723  0.27148645  0.28712804  0.29611712] [0.68320666 0.71355304 0.85279415 0.87182212 0.91126485 0.95631483
 0.97041237 1.01341013]
   4 ( 0.500  0.000  0.000)   [-0.35899943 -0.348437   -0.34352826 -0.33935501 -0.33663488 -0.24951007
 -0.23798635 -0.22392535 -0.22341634 -0.2214349  -0.17085426 -0.11809524
  0.07478699  0.13942793  0.17445654  0.22664792  0.27072548  0.32196535] [0.72145323 0.76839055 0.83431022 0.86666002 0.92455638 0.94398516
 0.99033787 0.99945033]
   5 ( 0.500  0.000  0.500)   [-0.35903942 -0.34845012 -0.34356206 -0.33891968 -0.33664625 -0.24817571
 -0.23432569 -0.22378365 -0.22324961 -0.22103664 -0.16930663 -0.12182723
  0.05802325  0.09317585  0.24675263  0.27150279  0.28662366  0.29599618] [0.68191662 0.71281957 0.85263847 0.87116652 0.91084556 0.95681725
 0.97074473 1.01437484]
   6 ( 0.500  0.500  0.000)   [-0.36022252 -0.34630541 -0.34324949 -0.34022218 -0.33674477 -0.24998084
 -0.23809528 -0.22595334 -0.22199138 -0.21604542 -0.17122553 -0.11735373
  0.07585858  0.1394388   0.17520815  0.227799    0.27078998  0.32257147] [0.7208046  0.76774688 0.83514653 0.8680259  0.92447942 0.94909184
 0.99100143 0.99995343]
   7 ( 0.500  0.500  0.500)   [-0.36026816 -0.34632564 -0.34318679 -0.34014526 -0.33654948 -0.25093239
 -0.23589678 -0.22629588 -0.22353039 -0.21681943 -0.16960302 -0.12153131
  0.05820253  0.09215528  0.24382198  0.27065675  0.28661454  0.29745596] [0.68177262 0.70685609 0.85063299 0.87186502 0.90857352 0.95493781
 0.97119235 1.01364045]
nelec by numeric integration = 35.99999999901175
    CPU time for vxc    230.41 sec, wall time      7.45 sec
Ewald components = 8.76453321006536e-07, -0.162059015555054, 0.068912395876923
    CPU time for vj and vk  13004.82 sec, wall time    905.51 sec
Ewald components = 6.77773183084737, -128.779455527716, 5.42224205397643
E1 = (-85.48330728543037-1.0670486965124208e-16j)  Ecoul = 58.3494084460468  Exc = -24.78295996271161
cycle= 12 E= -168.496340444987  delta_E= 0.0257  |g|=  7.1  |ddm|= 3.37
    CPU time for cycle= 12  13235.72 sec, wall time    912.98 sec
HOMO = 0.569148427839  LUMO = 0.689748194835
     k-point                  mo_energy
   0 ( 0.000  0.000  0.000)   [-3.38724364 -2.80110458 -1.93236523 -1.75675123 -1.13503358 -0.86399193
 -0.69853724 -0.54150615 -0.46803189 -0.35723425 -0.32961344 -0.18531136
  0.05252022  0.13039085  0.20736104  0.28706266  0.34256391  0.56914843] [0.69993347 0.88073207 0.99415352 1.53880014 1.79293402 2.3655371
 3.18153943 4.87722772]
   1 ( 0.000  0.000  0.500)   [-0.33779708 -0.3356975  -0.33187247 -0.33007602 -0.31860668 -0.2738745
 -0.2422961  -0.2393316  -0.23733758 -0.23211678 -0.23008573 -0.21513049
  0.1921911   0.2068016   0.3253841   0.33169889  0.34386882  0.34806357] [0.70506204 0.73257513 0.81990243 0.82226439 0.84671311 0.8492381
 0.86380985 0.88684694]
   2 ( 0.000  0.500  0.000)   [-0.3513071  -0.33561478 -0.33324442 -0.32998139 -0.32143692 -0.26461028
 -0.24758558 -0.24166375 -0.23603735 -0.23017943 -0.16535934 -0.1289737
  0.07879316  0.1297108   0.17161967  0.23249794  0.26495824  0.31471783] [0.73019742 0.76154099 0.82875128 0.86900358 0.916963   0.9459686
 0.98317108 0.98647313]
   3 ( 0.000  0.500  0.500)   [-0.35128978 -0.33555374 -0.333324   -0.32936337 -0.32153265 -0.26210553
 -0.24238897 -0.23828127 -0.23402161 -0.22935448 -0.15816982 -0.13555841
  0.06645554  0.08312473  0.26244857  0.27773271  0.27873064  0.28033197] [0.69166021 0.70580966 0.86135928 0.8636883  0.92208492 0.94517099
 0.98221271 0.99926374]
   4 ( 0.500  0.000  0.000)   [-0.34751911 -0.33722472 -0.33251078 -0.32947753 -0.32572787 -0.26397545
 -0.24481355 -0.23626035 -0.23595824 -0.23388237 -0.16534636 -0.12776827
  0.078908    0.13353615  0.17457947  0.23190643  0.26858816  0.31436428] [0.73089618 0.75926955 0.83343739 0.8687344  0.92373318 0.95109119
 0.98498101 0.98575087]
   5 ( 0.500  0.000  0.500)   [-0.34757441 -0.33720817 -0.33240679 -0.32888296 -0.32574144 -0.26042427
 -0.24231797 -0.23560455 -0.23484419 -0.23370709 -0.15761619 -0.13631423
  0.06683569  0.08542443  0.26236568  0.27740604  0.27855528  0.28002232] [0.69011627 0.70523757 0.86093637 0.86304786 0.92148315 0.94547964
 0.98278906 1.00019765]
   6 ( 0.500  0.500  0.000)   [-0.34866448 -0.33555823 -0.33315202 -0.32911483 -0.32574693 -0.26236365
 -0.24528399 -0.23766418 -0.23362083 -0.22828103 -0.16580559 -0.12672648
  0.08148268  0.13505747  0.17527696  0.23336017  0.26935511  0.31566274] [0.72973912 0.75925844 0.83490446 0.87089176 0.92416588 0.96198279
 0.98675536 0.98771938]
   7 ( 0.500  0.500  0.500)   [-0.34871649 -0.33557047 -0.3329503  -0.3289029  -0.32561597 -0.26393129
 -0.24557138 -0.2379029  -0.23642251 -0.22942905 -0.15811416 -0.13669246
  0.06752582  0.08472199  0.256437    0.276013    0.27803373  0.28059709] [0.68974819 0.70389763 0.85728509 0.86333853 0.91621107 0.94432868
 0.9833819  0.99985677]
nelec by numeric integration = 35.99999999901505
    CPU time for vxc    264.75 sec, wall time      8.68 sec
Ewald components = 8.76453321006536e-07, -0.162059015555054, 0.068912395876923
    CPU time for vj and vk  14212.60 sec, wall time    980.31 sec
Ewald components = 6.77773183084737, -128.779455527716, 5.42224205397643
E1 = (-85.5205984611495-1.0666538997496615e-16j)  Ecoul = 58.38303611108043  Exc = -24.788818241426803
cycle= 13 E= -168.505862234388  delta_E= -0.00952  |g|= 6.74  |ddm|= 2.09
    CPU time for cycle= 13  14478.26 sec, wall time    989.02 sec
HOMO = 0.576909947789  LUMO = 0.688617921338
     k-point                  mo_energy
   0 ( 0.000  0.000  0.000)   [-3.39695776 -2.7729226  -1.8841609  -1.75531789 -1.11528681 -0.85801823
 -0.69643212 -0.53790073 -0.46388909 -0.35490314 -0.32703437 -0.19594036
  0.04446423  0.13191653  0.2127904   0.28392169  0.34849222  0.57690995] [0.70167857 0.89541921 0.99337128 1.56741124 1.79123046 2.35710614
 3.18278362 4.80059375]
   1 ( 0.000  0.000  0.500)   [-0.33880542 -0.33667813 -0.33284616 -0.33111529 -0.31988526 -0.27228565
 -0.24024787 -0.23768422 -0.23151889 -0.23047282 -0.22834086 -0.21111789
  0.20234887  0.20838149  0.32686793  0.32942944  0.34923372  0.35139538] [0.7038128  0.73542737 0.82001454 0.82147731 0.8490634  0.85037537
 0.87882529 0.8910649 ]
   2 ( 0.000  0.500  0.000)   [-0.35240644 -0.33663572 -0.33430249 -0.33078166 -0.32260496 -0.25974009
 -0.24380489 -0.23672162 -0.23245766 -0.22809203 -0.1652253  -0.12607155
  0.08126362  0.13304746  0.17577852  0.2335223   0.26924391  0.31724625] [0.73169635 0.76356623 0.83575235 0.87019472 0.92375166 0.95824495
 0.98728815 0.98879336]
   3 ( 0.000  0.500  0.500)   [-0.35239736 -0.33658326 -0.33440233 -0.33024375 -0.32270223 -0.26046483
 -0.24144532 -0.23692432 -0.23265936 -0.22802283 -0.15992049 -0.13337098
  0.0652491   0.08445508  0.26028995  0.27703287  0.27999926  0.28270384] [0.69044453 0.7070849  0.8601522  0.86502808 0.92060818 0.94688263
 0.98055396 1.00145104]
   4 ( 0.500  0.000  0.000)   [-0.34865156 -0.33821983 -0.33351568 -0.33031045 -0.32691396 -0.25784738
 -0.24365891 -0.23398383 -0.23312306 -0.23231322 -0.16570054 -0.1254347
  0.08113696  0.13549513  0.174951    0.23368348  0.26964681  0.31705925] [0.73034226 0.76074742 0.83493863 0.87058759 0.92470218 0.96006451
 0.98743432 0.98900051]
   5 ( 0.500  0.000  0.500)   [-0.34870849 -0.33822091 -0.33345342 -0.32977211 -0.32692662 -0.2587501
 -0.24137423 -0.23411819 -0.23337427 -0.23230205 -0.15937897 -0.1340871
  0.06570366  0.08669867  0.26040629  0.27693322  0.27955911  0.28251051] [0.68898287 0.70646854 0.85988398 0.86441149 0.92023429 0.94717915
 0.9813979  1.00239976]
   6 ( 0.500  0.500  0.000)   [-0.34983778 -0.33654907 -0.33413051 -0.33009443 -0.32685534 -0.26070126
 -0.2442654  -0.23633767 -0.23182177 -0.22679871 -0.16636035 -0.1255701
  0.08105144  0.13579363  0.17540382  0.23325077  0.26967177  0.31674877] [0.72860743 0.76060249 0.83519041 0.87089917 0.92441867 0.96052093
 0.98830736 0.98905823]
   7 ( 0.500  0.500  0.500)   [-0.34988258 -0.33654655 -0.33395667 -0.32988763 -0.32671373 -0.26131892
 -0.24256786 -0.23614134 -0.23205157 -0.22679241 -0.15971453 -0.13416421
  0.06651864  0.08631598  0.25992835  0.27732948  0.27942504  0.28319045] [0.68861792 0.70513962 0.85880036 0.86470162 0.9210411  0.94620796
 0.98266132 1.00222128]
nelec by numeric integration = 35.999999999015195
    CPU time for vxc    239.99 sec, wall time      7.67 sec
Ewald components = 8.76453321006536e-07, -0.162059015555054, 0.068912395876923
    CPU time for vj and vk  12882.28 sec, wall time    966.81 sec
Ewald components = 6.77773183084737, -128.779455527716, 5.42224205397643
E1 = (-85.52943423276066-1.0668063656801672e-16j)  Ecoul = 58.38447520751904  Exc = -24.782804120680254
cycle= 14 E= -168.507244788814  delta_E= -0.00138  |g|=  6.4  |ddm|= 0.31
    CPU time for cycle= 14  13123.69 sec, wall time    974.52 sec
HOMO = 0.578055248866  LUMO = 0.687738528175
     k-point                  mo_energy
   0 ( 0.000  0.000  0.000)   [-3.37376649 -2.68256166 -1.86699736 -1.79261529 -1.12614991 -0.84038601
 -0.68986103 -0.53299666 -0.45174538 -0.34886916 -0.30146785 -0.1938858
  0.03237072  0.13326579  0.21573991  0.28954862  0.35022782  0.57805525] [0.68883574 0.91250574 0.9898193  1.57535888 1.74235036 2.38824017
 3.23163986 4.67285631]
   1 ( 0.000  0.000  0.500)   [-0.33857088 -0.33674181 -0.33257028 -0.33119393 -0.32024403 -0.27177292
 -0.23841705 -0.23627708 -0.22766814 -0.22697174 -0.22477379 -0.2093045
  0.20083538  0.20806621  0.32446004  0.32662891  0.34900801  0.35154493] [0.701983   0.73654471 0.81907503 0.82021669 0.85010142 0.85115065
 0.87771615 0.89052835]
   2 ( 0.000  0.500  0.000)   [-0.35235288 -0.33652051 -0.33446146 -0.33074231 -0.32266431 -0.25694514
 -0.24103109 -0.23284259 -0.22892839 -0.22435709 -0.16594727 -0.12581412
  0.08014304  0.13307889  0.17497931  0.23209982  0.26834815  0.31625901] [0.73000965 0.76409131 0.83516655 0.86977044 0.9231019  0.95644556
 0.98742604 0.98838245]
   3 ( 0.000  0.500  0.500)   [-0.35233905 -0.33646184 -0.33456248 -0.33021735 -0.32275845 -0.2576781
 -0.2384299  -0.23305555 -0.22913327 -0.22428649 -0.1614861  -0.13257153
  0.06394767  0.0849578   0.25786685  0.27547443  0.27924098  0.28276051] [0.6892273  0.70768209 0.85899437 0.86510521 0.91904892 0.9474429
 0.97866195 1.00161415]
   4 ( 0.500  0.000  0.000)   [-0.34867234 -0.33797058 -0.33358488 -0.33043468 -0.32693669 -0.25516754
 -0.24088065 -0.23020942 -0.22943163 -0.22843492 -0.16630159 -0.125394
  0.08010253  0.13523453  0.174234    0.23227331  0.26860659  0.31609325] [0.72891275 0.76143187 0.83445083 0.87024113 0.92395312 0.95807183
 0.98721013 0.98887396]
   5 ( 0.500  0.000  0.500)   [-0.34873351 -0.33797345 -0.33355411 -0.32985808 -0.32695217 -0.25605482
 -0.23838944 -0.23035295 -0.22969657 -0.22842496 -0.16093129 -0.13328394
  0.06425387  0.08700123  0.25793318  0.27547448  0.27879498  0.28268927] [0.6878988  0.70697706 0.85880233 0.86454174 0.91874288 0.94782936
 0.97936124 1.00246747]
   6 ( 0.500  0.500  0.000)   [-0.34979753 -0.33640966 -0.33402463 -0.33026553 -0.32696648 -0.25791344
 -0.24135244 -0.23258883 -0.22820482 -0.22304973 -0.16682442 -0.12558357
  0.0799004   0.13538926  0.17477306  0.23187142  0.26859961  0.31578836] [0.72756742 0.76138182 0.8347145  0.87044918 0.9236523  0.95830152
 0.98790311 0.98908393]
   7 ( 0.500  0.500  0.500)   [-0.34983949 -0.33639231 -0.33386655 -0.33008596 -0.3268033  -0.25852707
 -0.23940196 -0.23245048 -0.22844156 -0.22304232 -0.16113976 -0.13340132
  0.06477937  0.08664915  0.25757489  0.27588561  0.27871042  0.28322061] [0.68773853 0.70575868 0.85783563 0.86484921 0.91942635 0.94686311
 0.98040361 1.00236499]
nelec by numeric integration = 35.999999999013475
    CPU time for vxc    233.28 sec, wall time      7.50 sec
Ewald components = 8.76453321006536e-07, -0.162059015555054, 0.068912395876923
    CPU time for vj and vk  13134.42 sec, wall time    950.26 sec
Ewald components = 6.77773183084737, -128.779455527716, 5.42224205397643
E1 = (-85.5511636535034-1.066864930067536e-16j)  Ecoul = 58.41022917119222  Exc = -24.78968036114918
cycle= 15 E= -168.510096486352  delta_E= -0.00285  |g|=  6.1  |ddm|= 0.563
    CPU time for cycle= 15  13368.72 sec, wall time    957.80 sec
HOMO = 0.586574294112  LUMO = 0.686757647739
     k-point                  mo_energy
   0 ( 0.000  0.000  0.000)   [-3.39097998 -2.70679939 -1.88725513 -1.78175829 -1.17391953 -0.84094133
 -0.69096672 -0.53000877 -0.44826462 -0.35208933 -0.28304015 -0.20304621
  0.03678897  0.13312224  0.22850751  0.30172896  0.3821664   0.58657429] [0.69421126 0.89736753 0.96095578 1.58065545 1.75185152 2.32606995
 3.20121766 4.68754316]
   1 ( 0.000  0.000  0.500)   [-0.33827681 -0.33653532 -0.33235462 -0.33105083 -0.32049304 -0.27187562
 -0.23844883 -0.23493076 -0.22637026 -0.22580869 -0.22358539 -0.20798575
  0.19961544  0.20937149  0.32192356  0.32421058  0.35164173  0.35421661] [0.70030853 0.73823795 0.81841841 0.8194248  0.85106608 0.85173998
 0.87760082 0.89109551]
   2 ( 0.000  0.500  0.000)   [-0.35227412 -0.33627425 -0.33437884 -0.33043626 -0.32267061 -0.25535327
 -0.24049527 -0.23154944 -0.22770366 -0.2232136  -0.16683547 -0.12451578
  0.07953388  0.13391777  0.17480298  0.23138465  0.26853347  0.31703691] [0.72881033 0.7652797  0.83525764 0.86950523 0.9231452  0.95480146
 0.98848464 0.98966477]
   3 ( 0.000  0.500  0.500)   [-0.35225249 -0.33621529 -0.33448465 -0.32992762 -0.32276287 -0.25610276
 -0.2377419  -0.23177061 -0.22791174 -0.22314317 -0.16315304 -0.13059393
  0.06284515  0.0861307   0.25564825  0.27440168  0.28044854  0.28502107] [0.68812001 0.7088845  0.85760483 0.86650231 0.9178229  0.94879948
 0.97700271 1.00362519]
   4 ( 0.500  0.000  0.000)   [-0.34864496 -0.3376688  -0.33345261 -0.33014298 -0.32699238 -0.25367691
 -0.24035249 -0.22881856 -0.22829178 -0.22713248 -0.16712793 -0.12419961
  0.07949104  0.13594378  0.17412506  0.23158956  0.26873189  0.31688778] [0.72782053 0.7627039  0.8345599  0.86995469 0.92395598 0.95638229
 0.98790822 0.9905014 ]
   5 ( 0.500  0.000  0.500)   [-0.34870318 -0.33767534 -0.33343496 -0.32956418 -0.32700562 -0.25456431
 -0.23774355 -0.22896941 -0.22856206 -0.22712296 -0.16261444 -0.1312811
  0.06310248  0.08805486  0.25575292  0.27446172  0.27998426  0.28497213] [0.68691008 0.70810125 0.85745219 0.86599689 0.91750162 0.94915905
 0.97763786 1.00448945]
   6 ( 0.500  0.500  0.000)   [-0.34981939 -0.33618766 -0.33375831 -0.33007388 -0.32692309 -0.25636287
 -0.24074094 -0.23139406 -0.22695149 -0.22185636 -0.16753873 -0.12442336
  0.07930066  0.1360579   0.17470682  0.23117718  0.26867279  0.31657749] [0.7265951  0.7625941  0.83486476 0.87015723 0.92363911 0.95657828
 0.98828937 0.99098048]
   7 ( 0.500  0.500  0.500)   [-0.34985591 -0.33616526 -0.33363019 -0.32989523 -0.32675026 -0.25698366
 -0.23862269 -0.23130197 -0.22719248 -0.22184827 -0.16275924 -0.13138269
  0.06351167  0.08775944  0.25539507  0.27487014  0.27994135  0.28547011] [0.68675765 0.70687556 0.85656259 0.86625774 0.91816915 0.94818513
 0.97860559 1.00445315]
nelec by numeric integration = 35.999999999013035
    CPU time for vxc    216.33 sec, wall time      6.94 sec
Ewald components = 8.76453321006536e-07, -0.162059015555054, 0.068912395876923
    CPU time for vj and vk  12905.33 sec, wall time    930.27 sec
Ewald components = 6.77773183084737, -128.779455527716, 5.42224205397643
E1 = (-85.56320064604557-1.0669090684250218e-16j)  Ecoul = 58.42056005682823  Exc = -24.79017931375994
cycle= 16 E= -168.512301545869  delta_E= -0.00221  |g|= 5.89  |ddm|= 0.554
    CPU time for cycle= 16  13122.53 sec, wall time    937.24 sec
HOMO = 0.578268202461  LUMO = 0.6850376394
     k-point                  mo_energy
   0 ( 0.000  0.000  0.000)   [-3.51670873 -2.91788356 -1.98907205 -1.72291988 -1.22624327 -0.81005079
 -0.69031628 -0.53509186 -0.44584712 -0.41224674 -0.30890753 -0.20881868
  0.13544966  0.16964728  0.25398522  0.31788368  0.45179778  0.5782682 ] [0.70827528 0.82698158 0.90222405 1.54566968 1.8767341  2.39787268
 3.23987039 4.81411912]
   1 ( 0.000  0.000  0.500)   [-0.33249684 -0.33127621 -0.32679826 -0.32529436 -0.31573768 -0.27357386
 -0.23898776 -0.23492471 -0.2270403  -0.22489227 -0.22368607 -0.20781271
  0.19697881  0.20973338  0.31730378  0.31980723  0.35310988  0.35531474] [0.69765268 0.74007242 0.81718231 0.81832134 0.85198371 0.85278899
 0.87621083 0.8915848 ]
   2 ( 0.000  0.500  0.000)   [-0.34724338 -0.3303473  -0.3287698  -0.32468031 -0.31702668 -0.25505548
 -0.24156862 -0.2315671  -0.2281048  -0.22275314 -0.16921884 -0.12424447
  0.07787307  0.13408199  0.1737159   0.22900571  0.26745007  0.31669416] [0.72669873 0.76667497 0.83469146 0.86897682 0.92225918 0.95141181
 0.98830159 0.99098398]
   3 ( 0.000  0.500  0.500)   [-0.34718505 -0.33026948 -0.32888574 -0.32414419 -0.31711004 -0.25588526
 -0.23870755 -0.23180714 -0.22830918 -0.2226972  -0.16642821 -0.12944496
  0.0603632   0.08708081  0.25121542  0.27148923  0.28087046  0.28681816] [0.68613862 0.71027318 0.85494067 0.86801559 0.91572228 0.95003064
 0.97357694 1.00502028]
   4 ( 0.500  0.000  0.000)   [-0.34387812 -0.33153305 -0.327637   -0.32442655 -0.32153394 -0.25309827
 -0.24133209 -0.22892791 -0.22823017 -0.2274176  -0.16945999 -0.12380967
  0.07762626  0.13619324  0.17303629  0.22927247  0.26776621  0.31650367] [0.72566635 0.7642159  0.83385312 0.86923109 0.92314957 0.95327581
 0.98756643 0.99178418]
   5 ( 0.500  0.000  0.500)   [-0.34391756 -0.33154146 -0.32762331 -0.32374935 -0.32155566 -0.25411808
 -0.23856926 -0.22907571 -0.22849497 -0.22744219 -0.16592406 -0.13001168
  0.06073351  0.08891521  0.25142146  0.27160656  0.28029808  0.28666595] [0.68513483 0.70949797 0.85498577 0.86751972 0.9152322  0.95020061
 0.97416071 1.00588114]
   6 ( 0.500  0.500  0.000)   [-0.34514329 -0.33039086 -0.32786934 -0.32426363 -0.32123627 -0.2555998
 -0.24179461 -0.23161134 -0.22711994 -0.2218797  -0.16992747 -0.12402276
  0.07767178  0.13627198  0.17359464  0.22866266  0.26767625  0.31613231] [0.72444314 0.76403197 0.83431625 0.86943436 0.92274916 0.95357356
 0.98796224 0.99222482]
   7 ( 0.500  0.500  0.500)   [-0.3451469  -0.33032229 -0.32777774 -0.32407698 -0.32102331 -0.25626444
 -0.23964064 -0.23154696 -0.22737999 -0.22186646 -0.1660199  -0.13020807
  0.06125771  0.0885923   0.25085423  0.27209006  0.28023739  0.28700386] [0.68503764 0.70826301 0.85422257 0.86760226 0.91578058 0.9495308
 0.97517267 1.00587505]
nelec by numeric integration = 35.99999999901033
    CPU time for vxc    229.68 sec, wall time      7.37 sec
Ewald components = 8.76453321006536e-07, -0.162059015555054, 0.068912395876923
    CPU time for vj and vk  13147.18 sec, wall time    914.86 sec
Ewald components = 6.77773183084737, -128.779455527716, 5.42224205397643
E1 = (-85.53710871543328-1.067027752299311e-16j)  Ecoul = 58.40427688379635  Exc = -24.793881726726024
cycle= 17 E= -168.506195201255  delta_E= 0.00611  |g|= 5.86  |ddm|= 1.41
    CPU time for cycle= 17  13377.89 sec, wall time    922.26 sec
HOMO = 0.578101652988  LUMO = 0.66912820765
     k-point                  mo_energy
   0 ( 0.000  0.000  0.000)   [-3.6235709  -3.45736779 -2.36770714 -1.97165516 -1.52481709 -1.07631359
 -0.70264853 -0.55261142 -0.44965381 -0.43543832 -0.29305086 -0.20898617
 -0.16975012  0.02491005  0.17626609  0.33654794  0.39804418  0.57810165] [0.66912821 0.7773785  0.99249045 1.46348072 1.93441629 2.30397661
 3.69470484 5.2891654 ]
   1 ( 0.000  0.000  0.500)   [-0.32326632 -0.32009486 -0.31615057 -0.31444184 -0.30768483 -0.27770057
 -0.24160534 -0.2362924  -0.23074379 -0.22551976 -0.22307573 -0.20972285
  0.19162639  0.20677778  0.30762155  0.31235603  0.35024418  0.35150228] [0.69271541 0.74131341 0.8156325  0.81757958 0.84996907 0.85397255
 0.87281263 0.89144703]
   2 ( 0.000  0.500  0.000)   [-0.33790266 -0.31905844 -0.31781633 -0.31434963 -0.30725807 -0.25667393
 -0.24481372 -0.2333314  -0.22983001 -0.22315226 -0.17421518 -0.126898
  0.07366803  0.13246392  0.17043068  0.22311622  0.26355493  0.31246553] [0.72355593 0.76648048 0.83225766 0.86781762 0.91932471 0.94501979
 0.98572957 0.98969228]
   3 ( 0.000  0.500  0.500)   [-0.33777049 -0.31895042 -0.31794911 -0.31367386 -0.30730565 -0.25770894
 -0.24189754 -0.2336135  -0.23001972 -0.22312757 -0.17221345 -0.1314231
  0.0556399   0.08684949  0.24315336  0.26502022  0.27815465  0.28506843] [0.68333267 0.71093429 0.84988514 0.86874824 0.9125417  0.94911969
 0.96666348 1.00360585]
   4 ( 0.500  0.000  0.000)   [-0.33549269 -0.31956537 -0.31625777 -0.31403874 -0.31197242 -0.25434123
 -0.24448051 -0.23041154 -0.22949801 -0.22919682 -0.17436064 -0.12615552
  0.07314283  0.13400591  0.16984119  0.22382344  0.26389375  0.31236138] [0.72243633 0.76465176 0.83141412 0.86785896 0.92023539 0.94722253
 0.98460862 0.99030998]
   5 ( 0.500  0.000  0.500)   [-0.33545747 -0.31955152 -0.31614023 -0.31341474 -0.31184523 -0.25560221
 -0.24168481 -0.23050991 -0.22971543 -0.22932957 -0.17187828 -0.13136784
  0.0559773   0.087841    0.24381757  0.26517647  0.27762714  0.28497491] [0.68247647 0.71032305 0.85024752 0.86848045 0.91187309 0.94885497
 0.96734312 1.00421324]
   6 ( 0.500  0.500  0.000)   [-0.33761784 -0.31987552 -0.31689961 -0.31289775 -0.30993141 -0.2561295
 -0.2451935  -0.23391866 -0.22835532 -0.22344283 -0.17506218 -0.12634148
  0.07437697  0.13419175  0.17014938  0.2223897   0.26376992  0.31188171] [0.71997783 0.76469701 0.83229538 0.86790945 0.9197809  0.9484915
 0.98524043 0.99026239]
   7 ( 0.500  0.500  0.500)   [-0.33750581 -0.31974356 -0.31685721 -0.31248886 -0.30981832 -0.25696424
 -0.2430782  -0.23385183 -0.22864051 -0.22341568 -0.17208844 -0.13202394
  0.05766115  0.08735358  0.24234283  0.2657484   0.2775092   0.2846023 ] [0.68169431 0.70980615 0.84962448 0.86807408 0.91221725 0.94905326
 0.96912849 1.00408784]
nelec by numeric integration = 35.99999999901429
    CPU time for vxc    222.54 sec, wall time      7.07 sec
Ewald components = 8.76453321006536e-07, -0.162059015555054, 0.068912395876923
    CPU time for vj and vk  13445.80 sec, wall time    932.48 sec
Ewald components = 6.77773183084737, -128.779455527716, 5.42224205397643
E1 = (-86.02286628819738-1.0676703392863666e-16j)  Ecoul = 58.87727423035638  Exc = -24.887470704951024
cycle= 18 E= -168.612544405684  delta_E= -0.106  |g|= 5.79  |ddm|= 5.49
    CPU time for cycle= 18  13668.89 sec, wall time    939.57 sec
HOMO = 0.591459736605  LUMO = 0.663452517638
     k-point                  mo_energy
   0 ( 0.000  0.000  0.000)   [-3.57362938 -3.06972315 -2.3555933  -1.86132018 -1.51429737 -1.0771788
 -0.69621557 -0.54498914 -0.4439663  -0.41606955 -0.31209619 -0.21398986
 -0.15538367  0.0977782   0.17830514  0.3213365   0.38729237  0.59145974] [0.66345252 0.80951308 0.81263694 1.36358432 1.97545606 2.35922932
 3.94824679 4.62512841]
   1 ( 0.000  0.000  0.500)   [-0.31374909 -0.30850116 -0.30603    -0.3035322  -0.29845776 -0.27302391
 -0.23890283 -0.22870914 -0.22330239 -0.21892906 -0.21809655 -0.20726503
  0.19625877  0.20606362  0.31712776  0.32060615  0.34350499  0.34723191] [0.70002236 0.73663811 0.82267681 0.82347043 0.84658896 0.85063064
 0.87731181 0.89038803]
   2 ( 0.000  0.500  0.000)   [-0.32705055 -0.30872128 -0.30753845 -0.30551848 -0.29712152 -0.25131922
 -0.23701896 -0.22639366 -0.22294741 -0.21681343 -0.16720241 -0.12715331
  0.07799487  0.13264813  0.17154787  0.22710982  0.26462211  0.31072141] [0.72937709 0.76205108 0.83373755 0.87054896 0.92125242 0.9529795
 0.98516655 0.98600128]
   3 ( 0.000  0.500  0.500)   [-0.3269079  -0.30853693 -0.30747751 -0.30488522 -0.29717454 -0.25248115
 -0.23416096 -0.22661865 -0.22317645 -0.21678    -0.16362569 -0.13381835
  0.06218898  0.08530926  0.25178636  0.26912127  0.27614125  0.27868453] [0.68872687 0.70784832 0.85437518 0.86673365 0.91950709 0.94500133
 0.9742864  0.99954384]
   4 ( 0.500  0.000  0.000)   [-0.32526956 -0.3091391  -0.30656219 -0.30489302 -0.30085501 -0.2501841
 -0.23696334 -0.22308931 -0.22279751 -0.22150021 -0.16721147 -0.12657431
  0.0775914   0.13250382  0.17130705  0.22797926  0.26456251  0.31124737] [0.72898398 0.76155094 0.83324631 0.87096155 0.92167108 0.95438477
 0.98443916 0.98568383]
   5 ( 0.500  0.000  0.500)   [-0.3252181  -0.3091393  -0.30580081 -0.30452409 -0.30086637 -0.25146909
 -0.23441825 -0.22330619 -0.22299352 -0.22149763 -0.1634003  -0.13328147
  0.06222347  0.08475912  0.25231784  0.2690853   0.27603898  0.27952001] [0.68785898 0.70773545 0.85499547 0.86688733 0.9194938  0.94463618
 0.97458111 0.9994534 ]
   6 ( 0.500  0.500  0.000)   [-0.32647283 -0.30987574 -0.30614002 -0.30414861 -0.30007141 -0.25178402
 -0.2372676  -0.22683492 -0.22133942 -0.21644998 -0.16721466 -0.12707777
  0.07813846  0.13245186  0.17209491  0.22694109  0.26405967  0.31070714] [0.72778303 0.76157912 0.83419984 0.87100248 0.92106244 0.95476774
 0.98504211 0.98568244]
   7 ( 0.500  0.500  0.500)   [-0.32639758 -0.30958226 -0.30608511 -0.30355837 -0.30001776 -0.2528006
 -0.23513436 -0.22672766 -0.22164238 -0.21642927 -0.16319639 -0.13390667
  0.06267377  0.08453836  0.25143137  0.26971276  0.27610641  0.27890524] [0.68754831 0.70725417 0.8542567  0.8666566  0.91978542 0.94484827
 0.97568314 0.99951157]
nelec by numeric integration = 35.99999999901787
    CPU time for vxc    223.15 sec, wall time      7.19 sec
Ewald components = 8.76453321006536e-07, -0.162059015555054, 0.068912395876923
    CPU time for vj and vk  12378.89 sec, wall time    894.82 sec
Ewald components = 6.77773183084737, -128.779455527716, 5.42224205397643
E1 = (-86.0947457724339-1.0679285519863812e-16j)  Ecoul = 58.95821999115376  Exc = -24.8948302702328
cycle= 19 E= -168.610837694405  delta_E= 0.00171  |g|= 4.69  |ddm|= 2.03
    CPU time for cycle= 19  12603.21 sec, wall time    902.05 sec
HOMO = 0.543865352792  LUMO = 0.67858705605
     k-point                  mo_energy
   0 ( 0.000  0.000  0.000)   [-3.82302962 -2.93967445 -2.47029876 -1.8370482  -1.25400241 -1.05613684
 -0.67648417 -0.54553721 -0.43752608 -0.41428285 -0.32235465 -0.25335738
 -0.18143788  0.1512634   0.19586292  0.31338407  0.50479368  0.54386535] [0.73686949 0.74260976 0.87313173 1.38586857 2.34001093 2.45012173
 3.8186773  4.86185797]
   1 ( 0.000  0.000  0.500)   [-0.31371341 -0.29960334 -0.29840119 -0.29540814 -0.29264012 -0.27398921
 -0.23358452 -0.2224451  -0.21839931 -0.21590682 -0.21281438 -0.19531049
  0.18443372  0.22285834  0.29261971  0.29920282  0.37313196  0.37693773] [0.68594152 0.75206762 0.81762488 0.8185474  0.85430545 0.8596159
 0.87093319 0.90169318]
   2 ( 0.000  0.500  0.000)   [-0.32460457 -0.30024406 -0.29885963 -0.29580147 -0.28996146 -0.24157191
 -0.23691435 -0.22133517 -0.21730661 -0.21273738 -0.17598274 -0.11120603
  0.07041585  0.1398674   0.17300239  0.21712445  0.27264488  0.32464529] [0.71976884 0.77078372 0.83354838 0.86875328 0.92465236 0.94027871
 0.9925116  1.00745899]
   3 ( 0.000  0.500  0.500)   [-0.32428753 -0.30024754 -0.29890706 -0.29509916 -0.28999054 -0.24313736
 -0.23284638 -0.22161575 -0.21758557 -0.21271897 -0.17650077 -0.1140463
  0.05180285  0.09552573  0.23131942  0.26136458  0.29278391  0.30293371] [0.6800012  0.71879273 0.84158449 0.88131726 0.90953666 0.95876965
 0.96046029 1.02218739]
   4 ( 0.500  0.000  0.000)   [-0.32395568 -0.30016322 -0.29751218 -0.2954359  -0.29324273 -0.24063662
 -0.23703133 -0.2187985  -0.21802429 -0.21543115 -0.17570233 -0.11009348
  0.0699582   0.13850149  0.17225325  0.21810925  0.27250719  0.32556066] [0.7195931  0.77264349 0.83323587 0.86899654 0.92528501 0.94083669
 0.99125026 1.00681372]
   5 ( 0.500  0.000  0.500)   [-0.32365097 -0.30013807 -0.29736726 -0.29482542 -0.29315031 -0.24208799
 -0.23376699 -0.21906222 -0.21818505 -0.21542166 -0.17614541 -0.1124037
  0.05145615  0.09339542  0.2321363   0.26100112  0.29290994  0.30402085] [0.67918429 0.71980208 0.84249894 0.88213616 0.9096906  0.95824231
 0.96025318 1.02143025]
   6 ( 0.500  0.500  0.000)   [-0.32510917 -0.30141796 -0.29753004 -0.29460365 -0.29140537 -0.24176764
 -0.23714461 -0.22205733 -0.21659999 -0.21206867 -0.17505117 -0.11041091
  0.07131559  0.13717685  0.17307707  0.2164967   0.27157956  0.32519844] [0.71874844 0.7738881  0.83510833 0.86913808 0.9244663  0.940875
 0.99195114 1.00541127]
   7 ( 0.500  0.500  0.500)   [-0.32482451 -0.30138603 -0.29747805 -0.29392029 -0.2913911  -0.24298614
 -0.23405013 -0.22203379 -0.21692122 -0.21207156 -0.17580488 -0.11201642
  0.05200083  0.09169809  0.23047777  0.26185451  0.2935519   0.30383346] [0.67858706 0.71958374 0.84189521 0.88203744 0.90970175 0.95944479
 0.96120081 1.02075775]
nelec by numeric integration = 35.99999999900228
    CPU time for vxc    213.86 sec, wall time      6.87 sec
Ewald components = 8.76453321006536e-07, -0.162059015555054, 0.068912395876923
    CPU time for vj and vk  11825.79 sec, wall time    861.21 sec
Ewald components = 6.77773183084737, -128.779455527716, 5.42224205397643
E1 = (-86.07015687747933-1.0689275297403554e-16j)  Ecoul = 58.905172635587356  Exc = -24.879188120208287
cycle= 20 E= -168.623654004992  delta_E= -0.0128  |g|= 4.25  |ddm|= 4.76
    CPU time for cycle= 20  12040.49 sec, wall time    868.11 sec
HOMO = 0.497972033018  LUMO = 0.624195484571
     k-point                  mo_energy
   0 ( 0.000  0.000  0.000)   [-3.54791955 -2.81425133 -2.4064652  -1.75625416 -1.47457509 -1.05358081
 -0.67079971 -0.52743159 -0.46526558 -0.35880191 -0.32786113 -0.24598779
 -0.19281461  0.15140946  0.21347137  0.32319044  0.37216479  0.49797203] [0.62419548 0.77153946 0.85871219 1.38769767 2.20145013 2.6136442
 3.8196738  5.09518731]
   1 ( 0.000  0.000  0.500)   [-0.3155127  -0.30985073 -0.30866209 -0.30517476 -0.30270568 -0.26938995
 -0.2370577  -0.21814327 -0.21359578 -0.2108987  -0.20713026 -0.19927067
  0.19739124  0.20924244  0.31674138  0.32339108  0.34848993  0.35074342] [0.69680556 0.73871244 0.821212   0.82279405 0.85297798 0.85508684
 0.87882046 0.88970807]
   2 ( 0.000  0.500  0.000)   [-0.32777561 -0.31115506 -0.30931023 -0.30797456 -0.30061949 -0.24386972
 -0.22854731 -0.21583978 -0.21159289 -0.20766799 -0.16424933 -0.12268145
  0.07778595  0.134361    0.17413145  0.22821408  0.2673482   0.31317485] [0.72786959 0.7624713  0.83630052 0.87154702 0.92386187 0.95258698
 0.98832184 0.9892153 ]
   3 ( 0.000  0.500  0.500)   [-0.32767847 -0.31117817 -0.30932252 -0.30721889 -0.30064726 -0.24483842
 -0.22512265 -0.21612013 -0.21182983 -0.20767778 -0.16190318 -0.12852022
  0.06160582  0.08765843  0.25201619  0.27194894  0.27849933  0.2819283 ] [0.68791648 0.70939962 0.85573817 0.86803498 0.91889234 0.94915374
 0.97444872 1.00331737]
   4 ( 0.500  0.000  0.000)   [-0.32707587 -0.3104719  -0.30903993 -0.30687139 -0.30408368 -0.24328627
 -0.22842473 -0.21298107 -0.21292885 -0.21039065 -0.16421836 -0.12164697
  0.0770074   0.13488352  0.17351553  0.2290084   0.26757448  0.31364896] [0.72736313 0.76252895 0.83540445 0.87180669 0.92436686 0.95356328
 0.98772829 0.98941521]
   5 ( 0.500  0.000  0.500)   [-0.32702375 -0.31044687 -0.30860339 -0.30647587 -0.3040094  -0.24432694
 -0.22546064 -0.21325484 -0.21306213 -0.21036238 -0.1616481  -0.1277302
  0.06171605  0.08771391  0.25273839  0.27127045  0.27824675  0.2824295 ] [0.68727787 0.71013041 0.85612177 0.8681556  0.91901993 0.94862142
 0.97491908 1.00295994]
   6 ( 0.500  0.500  0.000)   [-0.32853967 -0.31264463 -0.30799601 -0.30616335 -0.3019774  -0.24438425
 -0.22854199 -0.21607898 -0.21137848 -0.20704862 -0.16328094 -0.12252162
  0.07848443  0.13269915  0.17491968  0.22768111  0.26643797  0.31330038] [0.72676465 0.76416089 0.83726454 0.87179028 0.92321722 0.95393902
 0.98772666 0.9883223 ]
   7 ( 0.500  0.500  0.500)   [-0.32847457 -0.31253712 -0.30796903 -0.30545299 -0.301991   -0.24528525
 -0.22575444 -0.21598282 -0.21165884 -0.20707366 -0.1613114  -0.12751618
  0.06218396  0.08561418  0.25103266  0.27224744  0.27893509  0.28257033] [0.68678732 0.70994346 0.85564154 0.86819485 0.9187728  0.94926938
 0.976289   1.00224329]
nelec by numeric integration = 35.99999999901185
    CPU time for vxc    206.15 sec, wall time      6.54 sec
Ewald components = 8.76453321006536e-07, -0.162059015555054, 0.068912395876923
    CPU time for vj and vk  13005.74 sec, wall time    908.02 sec
Ewald components = 6.77773183084737, -128.779455527716, 5.42224205397643
E1 = (-86.07748491091682-1.0682844547167383e-16j)  Ecoul = 58.915052429119356  Exc = -24.874351092946714
cycle= 21 E= -168.616265217636  delta_E= 0.00739  |g|= 2.25  |ddm|= 3.29
    CPU time for cycle= 21  13212.89 sec, wall time    914.59 sec
HOMO = 0.504021647906  LUMO = 0.646620687394
     k-point                  mo_energy
   0 ( 0.000  0.000  0.000)   [-3.61274842 -2.83771024 -2.39086212 -1.80193404 -1.27985852 -1.04255899
 -0.65682069 -0.51840482 -0.44861352 -0.35517331 -0.33398033 -0.25189003
 -0.17945346  0.14790816  0.19923999  0.33155809  0.44907747  0.50402165] [0.64662069 0.78579956 0.87140226 1.40584203 2.25884522 2.51961976
 3.92414048 5.16508514]
[...]
 -0.22114391 -0.2017797  -0.19798939 -0.19292123 -0.16164899 -0.11315079
  0.07501904  0.13779237  0.17594207  0.2254407   0.26905383  0.32054762] [0.71984192 0.77378994 0.83890911 0.8697397  0.9253938  0.94693366
 0.99253756 0.99879096]
   7 ( 0.500  0.500  0.500)   [-0.34362157 -0.3307329  -0.32514334 -0.32189252 -0.3202816  -0.23209942
 -0.21656209 -0.20166479 -0.19703125 -0.19227998 -0.16315228 -0.11502861
  0.05595143  0.09211243  0.24587771  0.2726584   0.28485183  0.2946751 ] [0.68108749 0.71686464 0.85411078 0.87343158 0.91408053 0.95883546
 0.97154926 1.01289804]
nelec by numeric integration = 35.99999999900258
    CPU time for vxc    237.26 sec, wall time      7.73 sec
Ewald components = 8.76453321006536e-07, -0.162059015555054, 0.068912395876923
    CPU time for vj and vk  15311.19 sec, wall time   1067.60 sec
Ewald components = 6.77773183084737, -128.779455527716, 5.42224205397643
E1 = (-85.98255636170619-1.067854602039619e-16j)  Ecoul = 58.80362645399201  Exc = -24.866941571083718
cycle= 45 E= -168.62535312169  delta_E= 0.0082  |g|= 2.79  |ddm|= 0.328
    CPU time for cycle= 45  15549.06 sec, wall time   1075.34 sec
HOMO = 0.578199068748  LUMO = 0.681397258588
     k-point                  mo_energy
   0 ( 0.000  0.000  0.000)   [-3.54693245 -2.93631188 -2.37263301 -1.68673146 -1.14623011 -1.05253189
 -0.6420898  -0.52517317 -0.48491606 -0.40525087 -0.29094264 -0.23480527
 -0.07698468  0.13034023  0.25419986  0.28551863  0.46002919  0.57819907] [0.70034331 0.7889966  0.98175855 1.26702902 2.25714401 2.5404278
 4.39985178 5.03935826]
   1 ( 0.000  0.000  0.500)   [-0.33148109 -0.32769727 -0.32555747 -0.32131062 -0.32005011 -0.27072745
 -0.2314936  -0.20382036 -0.19993556 -0.19579172 -0.19334389 -0.18647345
  0.19979207  0.21295106  0.30995107  0.3170211   0.3614966   0.36319238] [0.68884157 0.74939749 0.81465798 0.817192   0.86156594 0.86449384
 0.88301125 0.89672478]
   2 ( 0.000  0.500  0.000)   [-0.34230291 -0.33000404 -0.32631914 -0.32429601 -0.31832007 -0.23110407
 -0.22085363 -0.20041026 -0.196471   -0.19308881 -0.16239333 -0.11263097
  0.07598419  0.14045761  0.17676886  0.22642572  0.27107754  0.32031965] [0.72162036 0.77168206 0.84009907 0.87005192 0.9286897  0.9522415
 0.99335869 1.00020702]
   3 ( 0.000  0.500  0.500)   [-0.34221226 -0.33012846 -0.32630098 -0.32387827 -0.3183432  -0.23267452
 -0.2168796  -0.20168365 -0.19765355 -0.19402307 -0.16382955 -0.11696926
  0.05647723  0.09378604  0.24468225  0.27171124  0.28367447  0.29325942] [0.68224774 0.71569539 0.85362947 0.87317109 0.91176386 0.95864995
 0.9700511  1.01337391]
   4 ( 0.500  0.000  0.000)   [-0.34150859 -0.32777028 -0.32660725 -0.32439682 -0.32143233 -0.23019497
 -0.22070231 -0.19963822 -0.19852909 -0.19529025 -0.16270937 -0.11243181
  0.07491142  0.14079681  0.17466085  0.2280532   0.27030307  0.32064595] [0.72149721 0.77037124 0.83758112 0.87097227 0.92680573 0.95058418
 0.99329259 1.00027962]
   5 ( 0.500  0.000  0.500)   [-0.34151773 -0.32776356 -0.32666155 -0.32395583 -0.3213082  -0.23198919
 -0.21693388 -0.20012244 -0.19900035 -0.1956755  -0.16350177 -0.11678884
  0.05571832  0.0947859   0.24610766  0.27120222  0.28349703  0.29348305] [0.68242419 0.71585487 0.85387993 0.87235794 0.91218625 0.9587567
 0.96999191 1.0134913 ]
   6 ( 0.500  0.500  0.000)   [-0.34339507 -0.33054513 -0.3251688  -0.32225571 -0.32022883 -0.23221672
 -0.22104018 -0.20196488 -0.19824007 -0.19314605 -0.16141683 -0.11352217
  0.07529754  0.13762004  0.17598473  0.22579928  0.26894809  0.3202229 ] [0.72019687 0.77349344 0.83890928 0.86985728 0.92540603 0.94744647
 0.99235427 0.99828678]
   7 ( 0.500  0.500  0.500)   [-0.34338709 -0.33061166 -0.32507368 -0.32182834 -0.32019673 -0.23246673
 -0.21652316 -0.20186503 -0.19739468 -0.19258377 -0.16281992 -0.1155311
  0.05631281  0.0918801   0.24631576  0.27287115  0.28447065  0.2940601 ] [0.68139726 0.71658623 0.85441407 0.87310797 0.91420751 0.95840458
 0.97201246 1.01236623]
nelec by numeric integration = 35.99999999900277
    CPU time for vxc    240.09 sec, wall time      7.88 sec
Ewald components = 8.76453321006536e-07, -0.162059015555054, 0.068912395876923
    CPU time for vj and vk  15763.35 sec, wall time   1083.40 sec
Ewald components = 6.77773183084737, -128.779455527716, 5.42224205397643
E1 = (-85.98412245832287-1.0678099342865411e-16j)  Ecoul = 58.80458184349325  Exc = -24.867231230292038
cycle= 46 E= -168.626253488014  delta_E= -0.0009  |g|= 2.87  |ddm|= 0.136
    CPU time for cycle= 46  16004.13 sec, wall time   1091.31 sec
HOMO = 0.58019845509  LUMO = 0.681251641137
     k-point                  mo_energy
   0 ( 0.000  0.000  0.000)   [-3.54857062 -2.93544813 -2.39089088 -1.68495223 -1.14248166 -1.05664636
 -0.64224857 -0.52489324 -0.48607274 -0.40782304 -0.29037785 -0.23440221
 -0.07281223  0.13068366  0.25214744  0.28603894  0.45864345  0.58019846] [0.69712224 0.79685514 0.98991041 1.26718832 2.26211873 2.53837756
 4.4118528  5.06499581]
   1 ( 0.000  0.000  0.500)   [-0.33189838 -0.32823684 -0.32599051 -0.321787   -0.32044979 -0.27085565
 -0.23121976 -0.20424553 -0.20030291 -0.1961572  -0.19384335 -0.18670794
  0.19954075  0.21342465  0.30973734  0.31680795  0.36233268  0.36417796] [0.68857663 0.74985088 0.81456723 0.81710749 0.86167645 0.86446174
 0.88311708 0.89682135]
   2 ( 0.000  0.500  0.000)   [-0.34274089 -0.33051442 -0.32679977 -0.324706   -0.31877127 -0.23119471
 -0.22121839 -0.20080461 -0.1969001  -0.19358306 -0.16267765 -0.11232453
  0.07589491  0.14075709  0.17686041  0.2264101   0.27134318  0.32086641] [0.72145551 0.77193703 0.84018151 0.86999977 0.92880696 0.9518356
 0.99360236 1.00081468]
   3 ( 0.000  0.500  0.500)   [-0.34264857 -0.33064054 -0.32678134 -0.32429578 -0.31879525 -0.23273499
 -0.21722705 -0.20203852 -0.19802946 -0.19447144 -0.16407029 -0.11658389
  0.05636361  0.09412044  0.24450217  0.27178664  0.28424944  0.29400974] [0.68211757 0.71598632 0.85341867 0.87362623 0.91167308 0.95901088
 0.96993126 1.01407044]
   4 ( 0.500  0.000  0.000)   [-0.34191179 -0.32821511 -0.3271368  -0.32482918 -0.32190413 -0.2302519
 -0.22106966 -0.20009363 -0.19892339 -0.19574022 -0.16294246 -0.11210705
  0.07481339  0.14107805  0.17483989  0.22804487  0.27062661  0.3211862 ] [0.72138228 0.77067368 0.8377566  0.87090564 0.9270409  0.95020842
 0.99349361 1.00093227]
   5 ( 0.500  0.000  0.500)   [-0.34192239 -0.32820858 -0.32719483 -0.32439211 -0.32178037 -0.23201264
 -0.21727492 -0.20057032 -0.19937844 -0.19610237 -0.16374468 -0.11636095
  0.0555769   0.09508259  0.24594417  0.27128194  0.2840962   0.29422945] [0.68229799 0.71616238 0.85366878 0.8728215  0.91209554 0.95907666
 0.96987803 1.01417949]
   6 ( 0.500  0.500  0.000)   [-0.3437861  -0.33099979 -0.32570123 -0.32268534 -0.3207133  -0.23224476
 -0.22138385 -0.20234674 -0.19869989 -0.19355249 -0.1616601  -0.11313152
  0.07525218  0.13792225  0.17614595  0.22582373  0.26929192  0.32081883] [0.72005756 0.77381554 0.83910068 0.86982515 0.92565108 0.94729888
 0.99260327 0.99892768]
   7 ( 0.500  0.500  0.500)   [-0.34377809 -0.33106985 -0.32560503 -0.32227141 -0.32067614 -0.23251094
 -0.21688587 -0.20225796 -0.19790314 -0.19302622 -0.16306977 -0.11509993
  0.05618795  0.09215092  0.24605163  0.27289525  0.28506616  0.29483146] [0.68125164 0.71691027 0.85416498 0.87356675 0.91401497 0.95872639
 0.97190828 1.01302552]
nelec by numeric integration = 35.99999999900333
    CPU time for vxc    238.49 sec, wall time      7.73 sec
Ewald components = 8.76453321006536e-07, -0.162059015555054, 0.068912395876923
    CPU time for vj and vk  14567.11 sec, wall time   1044.27 sec
Ewald components = 6.77773183084737, -128.779455527716, 5.42224205397643
E1 = (-85.97971933025859-1.067825154409812e-16j)  Ecoul = 58.79904678871278  Exc = -24.86535446420315
cycle= 47 E= -168.625508648641  delta_E= 0.000745  |g|= 2.93  |ddm|= 0.206
    CPU time for cycle= 47  14806.21 sec, wall time   1052.02 sec
HOMO = 0.578815882211  LUMO = 0.680443689584
     k-point                  mo_energy
   0 ( 0.000  0.000  0.000)   [-3.54905953 -2.93405839 -2.39315023 -1.68354889 -1.14360716 -1.05689297
 -0.64356227 -0.52470961 -0.48667564 -0.40853255 -0.28826111 -0.23638251
 -0.07365806  0.13228241  0.25537167  0.28391903  0.45999647  0.57881588] [0.69622259 0.79767509 0.99197222 1.26728328 2.26206996 2.54284584
 4.40710078 5.05334783]
   1 ( 0.000  0.000  0.500)   [-0.33092972 -0.3269048  -0.32470307 -0.32047349 -0.31923211 -0.2719635
 -0.23020316 -0.20491804 -0.20096695 -0.19658016 -0.19397552 -0.18505722
  0.20089245  0.2152063   0.30744419  0.31466843  0.36618143  0.36731358] [0.68742463 0.75157541 0.81475485 0.81702115 0.86223988 0.86489106
 0.88681924 0.89836443]
   2 ( 0.000  0.500  0.000)   [-0.34197037 -0.32914188 -0.3254238  -0.32329591 -0.31747379 -0.23011138
 -0.22215104 -0.20113657 -0.19705783 -0.19357707 -0.16360041 -0.11036442
  0.07609044  0.14200064  0.17788876  0.22576549  0.27285358  0.32269898] [0.72132915 0.77305749 0.84212758 0.87014    0.93036455 0.95399696
 0.99462531 1.00342621]
   3 ( 0.000  0.500  0.500)   [-0.34187251 -0.32927072 -0.32541127 -0.3228962  -0.31749635 -0.2324076
 -0.21845521 -0.20287948 -0.19880938 -0.19525458 -0.16561007 -0.11485221
  0.05533885  0.09483926  0.24232688  0.2706768   0.28617892  0.29652743] [0.6813239  0.71708824 0.85166982 0.8754108  0.91088947 0.96007693
 0.9682742  1.01638354]
   4 ( 0.500  0.000  0.000)   [-0.34120235 -0.32690725 -0.32570581 -0.32343612 -0.32053514 -0.22912132
 -0.22194449 -0.20067533 -0.1995686  -0.19620659 -0.16418836 -0.11029805
  0.07488168  0.14186187  0.17493587  0.2276633   0.27152143  0.32298201] [0.72077487 0.77162963 0.8381799  0.87123331 0.92750491 0.95131348
 0.99458938 1.00320736]
   5 ( 0.500  0.000  0.500)   [-0.34119835 -0.32690574 -0.32576331 -0.32302576 -0.32040115 -0.23169212
 -0.21847339 -0.20130523 -0.20018018 -0.19687863 -0.16527882 -0.11466322
  0.05461421  0.09579436  0.24380031  0.27015038  0.286029    0.29677609] [0.68148428 0.71729511 0.85195276 0.87463111 0.91137779 0.96016919
 0.96828618 1.01645604]
   6 ( 0.500  0.500  0.000)   [-0.34308412 -0.32968837 -0.32425536 -0.32127221 -0.31936419 -0.23188305
 -0.22261535 -0.20314021 -0.19931981 -0.19435488 -0.16296452 -0.1117275
  0.07450256  0.13860941  0.17606852  0.22475471  0.27003757  0.32240358] [0.71933296 0.77471061 0.83920418 0.86966839 0.92590684 0.94576686
 0.99323149 1.00108899]
   7 ( 0.500  0.500  0.500)   [-0.34306253 -0.32975781 -0.32416298 -0.32085819 -0.31932236 -0.2320071
 -0.21788833 -0.20291058 -0.19789698 -0.19327845 -0.1644782  -0.11329929
  0.05524944  0.09296872  0.24526441  0.27228452  0.2870359   0.29740076] [0.68044369 0.71805458 0.85299791 0.87539739 0.91483402 0.95986655
 0.97048326 1.01534502]
nelec by numeric integration = 35.99999999900375
    CPU time for vxc    223.04 sec, wall time      7.15 sec
Ewald components = 8.76453321006536e-07, -0.162059015555054, 0.068912395876923
    CPU time for vj and vk  15191.37 sec, wall time   1055.91 sec
Ewald components = 6.77773183084737, -128.779455527716, 5.42224205397643
E1 = (-85.97965650410816-1.0678983102631863e-16j)  Ecoul = 58.7964182153234  Exc = -24.86320575198632
cycle= 48 E= -168.625925683663  delta_E= -0.000417  |g|=  1.3  |ddm|= 0.105
    CPU time for cycle= 48  15415.26 sec, wall time   1063.10 sec
HOMO = 0.575446502487  LUMO = 0.681559466755
     k-point                  mo_energy
   0 ( 0.000  0.000  0.000)   [-3.55024915 -2.93517179 -2.40580608 -1.68594375 -1.1337364  -1.05945604
 -0.64454627 -0.52294461 -0.48789539 -0.40833024 -0.28929208 -0.23440637
 -0.06858895  0.13264846  0.25174073  0.28660746  0.45712779  0.5754465 ] [0.69591855 0.79670441 0.99269853 1.26953759 2.27140547 2.53397899
 4.40873829 5.12812234]
   1 ( 0.000  0.000  0.500)   [-0.32916719 -0.32493065 -0.32280679 -0.31854087 -0.31750598 -0.27078338
 -0.23101005 -0.20570617 -0.20188042 -0.1975425  -0.19523229 -0.18731302
  0.19913869  0.21462509  0.30929242  0.31626374  0.36393451  0.36589158] [0.68871981 0.75023207 0.81565754 0.81827417 0.86097336 0.86420194
 0.88408123 0.89661858]
   2 ( 0.000  0.500  0.000)   [-0.34001712 -0.3271851  -0.32360711 -0.32159972 -0.31561966 -0.23160489
 -0.22210367 -0.20235035 -0.19834325 -0.1950627  -0.16323119 -0.11170665
  0.07615077  0.14092764  0.17715989  0.22646593  0.27200957  0.32170746] [0.72205162 0.77184695 0.84068463 0.8703947  0.9290236  0.95187189
 0.99385937 1.00183481]
   3 ( 0.000  0.500  0.500)   [-0.33991438 -0.3273106  -0.32358515 -0.32117549 -0.31564067 -0.2332015
 -0.21824045 -0.20356733 -0.1994907  -0.19593798 -0.1644564  -0.11590815
  0.05660104  0.0941888   0.24429157  0.27155169  0.28566678  0.29510018] [0.68241407 0.71638316 0.85265004 0.87486437 0.91239606 0.95898197
 0.96978587 1.01526073]
   4 ( 0.500  0.000  0.000)   [-0.33935771 -0.32502374 -0.32378422 -0.32170345 -0.31861646 -0.23070757
 -0.2220145  -0.20148463 -0.2003781  -0.19724353 -0.16347268 -0.11153735
  0.07504526  0.14123793  0.1751172   0.22811005  0.27134479  0.32210621] [0.72194726 0.77062745 0.83809447 0.87131599 0.92747018 0.95019793
 0.99383538 1.00185861]
   5 ( 0.500  0.000  0.500)   [-0.33935378 -0.32501754 -0.3238327  -0.32125609 -0.31849037 -0.23259318
 -0.21825563 -0.20194479 -0.20083547 -0.19761501 -0.16415167 -0.11575324
  0.05586064  0.09515166  0.24572149  0.27100843  0.28547747  0.29541589] [0.68256283 0.71657636 0.85290227 0.8741305  0.91284579 0.95911801
 0.96971171 1.01524423]
   6 ( 0.500  0.500  0.000)   [-0.34117126 -0.32779101 -0.32241535 -0.31949883 -0.31749139 -0.2327397
 -0.22229142 -0.20372878 -0.20007345 -0.19513463 -0.1622258  -0.11253464
  0.07543074  0.13822545  0.17636516  0.22587914  0.27004742  0.32171189] [0.72070258 0.77364779 0.8394128  0.87022568 0.92608991 0.94733448
 0.99288221 0.9999576 ]
   7 ( 0.500  0.500  0.500)   [-0.34115132 -0.32785723 -0.32231587 -0.31905888 -0.31746215 -0.23308846
 -0.21786216 -0.20363538 -0.19927967 -0.19461201 -0.16347641 -0.11455155
  0.05641853  0.09233916  0.24583166  0.2726213   0.28642936  0.29596916] [0.68155947 0.71732805 0.85340727 0.87484466 0.91471876 0.95870661
 0.97168222 1.0141894 ]
nelec by numeric integration = 35.99999999900322
    CPU time for vxc    262.24 sec, wall time      8.67 sec
Ewald components = 8.76453321006536e-07, -0.162059015555054, 0.068912395876923
    CPU time for vj and vk  15510.56 sec, wall time   1069.65 sec
Ewald components = 6.77773183084737, -128.779455527716, 5.42224205397643
E1 = (-85.99045195574412-1.0678121511305827e-16j)  Ecoul = 58.806763206048785  Exc = -24.866109236361325
cycle= 49 E= -168.629279628949  delta_E= -0.00335  |g|= 2.87  |ddm|= 0.144
    CPU time for cycle= 49  15774.64 sec, wall time   1078.38 sec
HOMO = 0.560514065273  LUMO = 0.68159371115
     k-point                  mo_energy
   0 ( 0.000  0.000  0.000)   [-3.5715376  -2.94227274 -2.39802424 -1.70051895 -1.12080079 -1.06198803
 -0.6458976  -0.52013125 -0.4834071  -0.40556436 -0.29033432 -0.23452284
 -0.06964312  0.1343919   0.25309591  0.28361458  0.44950838  0.56051407] [0.70691079 0.78062103 0.99134125 1.27568248 2.26816167 2.53109766
 4.39855928 5.24366983]
   1 ( 0.000  0.000  0.500)   [-0.32818172 -0.32349515 -0.32143686 -0.31733364 -0.31647836 -0.27059126
 -0.2307705  -0.20472324 -0.20101626 -0.19674222 -0.19411927 -0.18690871
  0.1988295   0.21443506  0.3091245   0.31601949  0.36362577  0.36555826] [0.68886047 0.74997944 0.81550398 0.81829879 0.86128268 0.865434
 0.8833053  0.89642386]
   2 ( 0.000  0.500  0.000)   [-0.33884818 -0.32577998 -0.32222534 -0.32047081 -0.31448313 -0.23098092
 -0.22132343 -0.20158301 -0.19740033 -0.1940357  -0.16285175 -0.11162021
  0.07608432  0.14078407  0.17701197  0.22625288  0.27177779  0.32145708] [0.72186808 0.77192511 0.84054486 0.8703474  0.92877527 0.9514604
 0.9938833  1.00179422]
   3 ( 0.000  0.500  0.500)   [-0.33874549 -0.32590094 -0.3222135  -0.32002879 -0.3144983  -0.23244643
 -0.21742443 -0.20274074 -0.19850473 -0.19482448 -0.16415048 -0.11570607
  0.05658882  0.09414362  0.24412971  0.27150151  0.28548874  0.29489819] [0.68241037 0.71633941 0.85294519 0.87456423 0.91218438 0.95925208
 0.96981732 1.01524654]
   4 ( 0.500  0.000  0.000)   [-0.33843918 -0.32376261 -0.32233857 -0.32048697 -0.31721102 -0.23024714
 -0.22123552 -0.20041099 -0.19940679 -0.19630034 -0.16305814 -0.11144838
  0.07496977  0.14114077  0.17501932  0.22788284  0.27120168  0.32196884] [0.72174416 0.77082201 0.83800721 0.87127053 0.92738148 0.94992447
 0.99398776 1.00167875]
   5 ( 0.500  0.000  0.500)   [-0.33842579 -0.32375482 -0.32236383 -0.32006656 -0.3170755  -0.23200697
 -0.21741023 -0.20084422 -0.19986003 -0.19665278 -0.16385919 -0.11558815
  0.05591089  0.09509109  0.24554614  0.27090369  0.28525108  0.29533807] [0.68252371 0.71659599 0.85317626 0.87388376 0.91264486 0.9595254
 0.96971385 1.01505827]
   6 ( 0.500  0.500  0.000)   [-0.34020079 -0.32655013 -0.3209406  -0.31823098 -0.31619509 -0.23213222
 -0.221485   -0.2027539  -0.19895296 -0.19419887 -0.16179966 -0.11244566
  0.07536695  0.1381915   0.1763028   0.22572076  0.26991633  0.32154545] [0.72066115 0.77383541 0.83932518 0.87020373 0.92605727 0.94727748
 0.99298766 0.99986209]
   7 ( 0.500  0.500  0.500)   [-0.34017596 -0.32661426 -0.32084964 -0.3177584  -0.31617918 -0.23250617
 -0.21701117 -0.20268712 -0.19822773 -0.19372623 -0.16317751 -0.11443692
  0.05636713  0.09233404  0.24553398  0.27249235  0.28620164  0.29582729] [0.68159371 0.71734621 0.85365843 0.87465161 0.91432951 0.95901458
 0.97158156 1.01406161]
nelec by numeric integration = 35.999999999001986
    CPU time for vxc    245.24 sec, wall time      8.09 sec
Ewald components = 8.76453321006536e-07, -0.162059015555054, 0.068912395876923
    CPU time for vj and vk  15653.19 sec, wall time   1102.20 sec
Ewald components = 6.77773183084737, -128.779455527716, 5.42224205397643
E1 = (-86.02811498656101-1.0678880863108151e-16j)  Ecoul = 58.84121941608387  Exc = -24.873638011979093
cycle= 50 E= -168.640015225348  delta_E= -0.0107  |g|= 1.32  |ddm|= 0.592
    CPU time for cycle= 50  15899.08 sec, wall time   1110.31 sec
    CPU time for scf_cycle 729895.69 sec, wall time  51123.65 sec
    CPU time for SCF 729895.69 sec, wall time  51123.65 sec
SCF not converged.
SCF energy = -168.640015225348
nelec by numeric integration = 35.999999999001986
    CPU time for vxc    813.04 sec, wall time     32.51 sec
Ewald components = 8.76453321006536e-07, -0.162059015555054, 0.068912395876923
    CPU time for vj and vk  93882.11 sec, wall time   6527.40 sec

WARN: 78.37 error found in overlap integrals. cell.precision  or  cell.rcut  can be adjusted to improve accuracy.

Traceback (most recent call last):
  File "/central/home/pkozlows/ch121b/gan/dft/szv/222/3/szv_2.py", line 45, in <module>
    e_kn_2 = kmf.get_bands(band_kpts)[0]
             ^^^^^^^^^^^^^^^^^^^^^^^^
  File "/groups/wag/pkozlows/miniconda3/envs/pyscf/lib/python3.11/site-packages/pyscf/pbc/scf/khf.py", line 691, in get_bands
    mo_energy, mo_coeff = self.eig(fock, s1e)
                          ^^^^^^^^^^^^^^^^^^^
  File "/groups/wag/pkozlows/miniconda3/envs/pyscf/lib/python3.11/site-packages/pyscf/pbc/scf/khf.py", line 654, in eig
    e, c = self._eigh(h_kpts[k], s_kpts[k])
           ^^^^^^^^^^^^^^^^^^^^^^^^^^^^^^^^
  File "/groups/wag/pkozlows/miniconda3/envs/pyscf/lib/python3.11/site-packages/pyscf/scf/hf.py", line 1537, in _eigh
    return eig(h, s)
           ^^^^^^^^^
  File "/groups/wag/pkozlows/miniconda3/envs/pyscf/lib/python3.11/site-packages/pyscf/scf/hf.py", line 1183, in eig
    e, c = scipy.linalg.eigh(h, s)
           ^^^^^^^^^^^^^^^^^^^^^^^
  File "/groups/wag/pkozlows/miniconda3/envs/pyscf/lib/python3.11/site-packages/scipy/linalg/_decomp.py", line 593, in eigh
    raise LinAlgError('The leading minor of order {} of B is not '
numpy.linalg.LinAlgError: The leading minor of order 17 of B is not positive definite. The factorization of B could not be completed and no eigenvalues or eigenvectors were computed.
