/groups/wag/pkozlows/miniconda3/envs/pyscf/lib/python3.11/site-packages/pyscf/dft/libxc.py:772: UserWarning: Since PySCF-2.3, B3LYP (and B3P86) are changed to the VWN-RPA variant, the same to the B3LYP functional in Gaussian and ORCA (issue 1480). To restore the VWN5 definition, you can put the setting "B3LYP_WITH_VWN5 = True" in pyscf_conf.py
  warnings.warn('Since PySCF-2.3, B3LYP (and B3P86) are changed to the VWN-RPA variant, '
Discarded 6 diffused primitive functions, 0 contracted functions
#INFO: **** input file is /central/home/pkozlows/ch121b/gan/dft/szv/222/3/szv_2.py ****
# import statements
import pyscf.pbc.tools.pyscf_ase as pyscf_ase
import pyscf.pbc.gto as pbcgto
import pyscf.pbc.dft as pbcdft


from ase.build import bulk
from ase.dft.kpoints import sc_special_points as special_points, get_bandpath

import numpy as np

# ase
c = bulk('GaN', 'wurtzite', a=3.19, c=5.19)

# pyscf specs
cell = pbcgto.Cell()
cell.atom = pyscf_ase.ase_atoms_to_pyscf(c)
cell.a = c.cell
cell.exp_to_discard = 0.1

cell.basis = 'gth-szv'
cell.pseudo = 'gth-pade'
cell.verbose = 5
cell.build()

# define the special points here
points = special_points['hexagonal']
G = points['G']
K = points['K']
M = points['M']
A = points['A']
L = points['L']
H = points['H']

# Choose an appropriate path for the band structure calculation
band_kpts, kpath, sp_points = get_bandpath([G, M, K, G, A, L, H, A], c.cell, npoints=50)
band_kpts = cell.get_abs_kpts(band_kpts)

# dft calculation
kmf = pbcdft.KRKS(cell, cell.make_kpts([2,2,2]))
kmf.xc = 'b3pw91'
kmf.kernel()

# get the data from the calculation
e_kn_2 = kmf.get_bands(band_kpts)[0]
vbmax = -99
for en in e_kn_2:
    vb_k = en[cell.nelectron//2-1]
    if vb_k > vbmax:
        vbmax = vb_k
e_kn_2 = [en - vbmax for en in e_kn_2]

# Saving data to .npy files
np.save('band_kpts.npy', band_kpts)
np.save('kpath.npy', kpath)
np.save('sp_points.npy', sp_points)
np.save('e_kn_2.npy', e_kn_2)
np.save('nbands.npy', cell.nao_nr())







#INFO: ******************** input file end ********************


System: uname_result(system='Linux', node='hpc-19-24.cm.cluster', release='3.10.0-1160.53.1.el7.x86_64', version='#1 SMP Fri Jan 14 13:59:45 UTC 2022', machine='x86_64')  Threads 32
Python 3.11.5 (main, Sep 11 2023, 13:54:46) [GCC 11.2.0]
numpy 1.26.0  scipy 1.11.3
Date: Mon Oct 30 01:57:39 2023
PySCF version 2.3.0
PySCF path  /groups/wag/pkozlows/miniconda3/envs/pyscf/lib/python3.11/site-packages/pyscf

[ENV] PYSCF_CONFIG_FILE /home/pkozlows
[CONFIG] conf_file /home/pkozlows/.pyscf_conf.py
[INPUT] verbose = 5
[INPUT] max_memory = 466867 
[INPUT] num. atoms = 4
[INPUT] num. electrons = 36
[INPUT] charge = 0
[INPUT] spin (= nelec alpha-beta = 2S) = 0
[INPUT] symmetry False subgroup None
[INPUT] Mole.unit = angstrom
[INPUT] Symbol           X                Y                Z      unit          X                Y                Z       unit  Magmom
[INPUT]  1 Ga     0.000000000000   0.000000000000   0.000000000000 AA    0.000000000000   0.000000000000   0.000000000000 Bohr   0.0
[INPUT]  2 N     -0.000000000000   1.841747358715   0.643929030186 AA   -0.000000000000   3.480398098612   1.216849510709 Bohr   0.0
[INPUT]  3 Ga    -0.000000000000   1.841747358715   2.595000000000 AA   -0.000000000000   3.480398098612   4.903839293246 Bohr   0.0
[INPUT]  4 N      0.000000000000   0.000000000000   3.238929030186 AA    0.000000000000   0.000000000000   6.120688803955 Bohr   0.0
[INPUT] ---------------- BASIS SET ---------------- 
[INPUT] l, kappa, [nprim/nctr], expnt,             c_1 c_2 ...
[INPUT] Ga
[INPUT] 0    0    [5    /1   ]  7.06665397037     0.00403882881
                                3.42836918        -0.04992601521
                                1.43006411438     0.270487560795
                                0.571610928613    0.114461485481
                                0.232196966975    -0.765662388169
[INPUT] 1    0    [5    /1   ]  7.06665397037     0.000167446202
                                3.42836918        0.003362568505
                                1.43006411438     0.130532105798
                                0.571610928613    -0.096032824634
                                0.232196966975    -0.807329497232
[INPUT] 2    0    [5    /1   ]  7.06665397037     -0.311164169605
                                3.42836918        -0.386388805667
                                1.43006411438     -0.341437057173
                                0.571610928613    -0.20460821239
                                0.232196966975    -0.056129936831
[INPUT] N
[INPUT] 0    0    [4    /1   ]  6.1526903413      0.1506300537
                                1.823633228       -0.0360100734
                                0.567662887       -0.6942023212
                                0.1628222852      -0.3878929987
[INPUT] 1    0    [4    /1   ]  6.1526903413      -0.0950603476
                                1.823633228       -0.2918864295
                                0.567662887       -0.473905005
                                0.1628222852      -0.389341867

Ewald components = 6.77773183084737, -128.779455527716, 5.42224205397643
nuclear repulsion = -116.579481642892
number of shells = 10
number of NR pGTOs = 122
number of NR cGTOs = 26
basis = gth-szv
ecp = {}
CPU time:         0.45
lattice vectors  a1 [6.028226337, 0.000000000, 0.000000000]
                 a2 [-3.014113169, 5.220597148, 0.000000000]
                 a3 [0.000000000, 0.000000000, 9.807678586]
dimension = 3
low_dim_ft_type = None
Cell volume = 308.657
exp_to_discard = 0.1
rcut = 18.312728390691518 (nimgs = [4 4 2])
lattice sum = 461 cells
precision = 1e-08
pseudo = gth-pade
ke_cutoff = 887.7119060369721
    = [ 83  83 133] mesh (916237 PWs)
/groups/wag/pkozlows/miniconda3/envs/pyscf/lib/python3.11/site-packages/ase/dft/kpoints.py:357: UserWarning: Please do not use (kpts, x, X) = bandpath(...).  Use path = bandpath(...) and then kpts = path.kpts and (x, X, labels) = path.get_linear_kpoint_axis().
  warnings.warn('Please do not use (kpts, x, X) = bandpath(...).  '


******** <class 'pyscf.pbc.dft.krks.KRKS'> ********
method = KRKS-KohnShamDFT
initial guess = minao
damping factor = 0
level_shift factor = 0
DIIS = <class 'pyscf.scf.diis.CDIIS'>
diis_start_cycle = 1
diis_space = 8
SCF conv_tol = 1e-07
SCF conv_tol_grad = None
SCF max_cycles = 50
direct_scf = True
direct_scf_tol = 1e-13
chkfile to save SCF result = /tmp/tmptpp845cr
max_memory 466867 MB (current use 100 MB)


******** PBC SCF flags ********
N kpts = 8
kpts = [[0.         0.         0.        ]
 [0.         0.         0.3203197 ]
 [0.         0.60176883 0.        ]
 [0.         0.60176883 0.3203197 ]
 [0.5211471  0.30088442 0.        ]
 [0.5211471  0.30088442 0.3203197 ]
 [0.5211471  0.90265325 0.        ]
 [0.5211471  0.90265325 0.3203197 ]]
Exchange divergence treatment (exxdiv) = ewald
Ewald components = 8.76453321006536e-07, -0.162059015555054, 0.068912395876923
    madelung (= occupied orbital energy shift) = 0.18629148644961965
    Total energy shift due to Ewald probe charge = -1/2 * Nelec*madelung = -3.35324675609
DF object = <pyscf.pbc.df.fft.FFTDF object at 0x7fade1d560d0>
XC functionals = b3pw91
small_rho_cutoff = 1e-07
Uniform grid, mesh = [ 83  83 133]
<class 'pyscf.pbc.dft.krks.KRKS'> does not have attributes  nlcgrids nlc
Set gradient conv threshold to 0.000316228
    CPU time for setting up grids      9.05 sec, wall time      0.55 sec
nelec by numeric integration = 35.999750039896874
    CPU time for vxc    588.33 sec, wall time     19.96 sec
Ewald components = 8.76453321006536e-07, -0.162059015555054, 0.068912395876923
    CPU time for vj and vk  16884.81 sec, wall time   1069.23 sec
Ewald components = 6.77773183084737, -128.779455527716, 5.42224205397643
E1 = (-88.12776786407453-9.4451711143307e-17j)  Ecoul = 61.47693287752237  Exc = -24.878211853564515
init E= -168.108528483009
cond(S) = [7.39940068 6.35510979 7.03288257 6.30438812 7.03288257 6.30438812
 7.03288257 6.30438812]
/groups/wag/pkozlows/miniconda3/envs/pyscf/lib/python3.11/site-packages/pyscf/pbc/gto/cell.py:243: UserWarning: Function cell.dumps drops attribute a because it is not JSON-serializable
  warnings.warn(msg)
    CPU time for initialize scf  17861.96 sec, wall time   1106.45 sec
HOMO = 0.250765896067  LUMO = 0.607301613588
     k-point                  mo_energy
   0 ( 0.000  0.000  0.000)   [-0.44227705 -0.36539496 -0.09328716 -0.09321073 -0.09321073 -0.08745354
 -0.08745354 -0.06725462 -0.06725462 -0.06274677 -0.06274677 -0.04927073
  0.00053397  0.21511882  0.21511882  0.24875281  0.2507659   0.2507659 ] [0.60730161 0.65411076 0.82715243 0.82715243 0.8434842  0.87557677
 0.87557677 0.898128  ]
   1 ( 0.000  0.000  0.500)   [-0.40698421 -0.40698387 -0.09090594 -0.09090594 -0.09090501 -0.09090501
 -0.08999488 -0.08999153 -0.06462276 -0.06462276 -0.06462205 -0.06462205
  0.1331392   0.13314053  0.23286772  0.23286772  0.23286848  0.23286848] [0.67819099 0.67819127 0.81683556 0.81683658 0.84938639 0.84938639
 0.84938651 0.84938651]
   2 ( 0.000  0.500  0.000)   [-0.36729812 -0.3429434  -0.0921476  -0.08639484 -0.07773036 -0.07557624
 -0.07256449 -0.06834214 -0.06354051 -0.0615983  -0.0509793  -0.05080098
  0.02910668  0.06949887  0.11076784  0.15460309  0.18725299  0.21551663] [0.69691351 0.73219777 0.76762112 0.84786115 0.86893398 0.87611896
 0.92925915 0.93142746]
   3 ( 0.000  0.500  0.500)   [-0.35367547 -0.35367502 -0.09130277 -0.09130181 -0.07977352 -0.07977307
 -0.0718956  -0.07189355 -0.06300284 -0.06300211 -0.04852719 -0.04852685
  0.02593235  0.02593253  0.18450193  0.1845025   0.18606791  0.18606882] [0.67203211 0.67203231 0.81495933 0.8149601  0.90165361 0.90165397
 0.90834737 0.90834833]
   4 ( 0.500  0.000  0.000)   [-0.36729812 -0.3429434  -0.0921476  -0.08639484 -0.07773036 -0.07557624
 -0.07256449 -0.06834214 -0.06354051 -0.0615983  -0.0509793  -0.05080098
  0.02910668  0.06949887  0.11076784  0.15460309  0.18725299  0.21551663] [0.69691351 0.73219777 0.76762112 0.84786115 0.86893398 0.87611896
 0.92925915 0.93142746]
   5 ( 0.500  0.000  0.500)   [-0.35367547 -0.35367502 -0.09130277 -0.09130181 -0.07977352 -0.07977307
 -0.0718956  -0.07189355 -0.06300284 -0.06300211 -0.04852719 -0.04852685
  0.02593235  0.02593253  0.18450193  0.1845025   0.18606791  0.18606882] [0.67203211 0.67203231 0.81495933 0.8149601  0.90165361 0.90165397
 0.90834737 0.90834833]
   6 ( 0.500  0.500  0.000)   [-0.36729812 -0.3429434  -0.0921476  -0.08639484 -0.07773036 -0.07557624
 -0.07256449 -0.06834214 -0.06354051 -0.0615983  -0.0509793  -0.05080098
  0.02910668  0.06949887  0.11076784  0.15460309  0.18725299  0.21551663] [0.69691351 0.73219777 0.76762112 0.84786115 0.86893398 0.87611896
 0.92925915 0.93142746]
   7 ( 0.500  0.500  0.500)   [-0.35367547 -0.35367502 -0.09130277 -0.09130181 -0.07977352 -0.07977307
 -0.0718956  -0.07189355 -0.06300284 -0.06300211 -0.04852719 -0.04852685
  0.02593235  0.02593253  0.18450193  0.1845025   0.18606791  0.18606882] [0.67203211 0.67203231 0.81495933 0.8149601  0.90165361 0.90165397
 0.90834737 0.90834833]
nelec by numeric integration = 35.99999999887704
    CPU time for vxc    186.74 sec, wall time      6.12 sec
Ewald components = 8.76453321006536e-07, -0.162059015555054, 0.068912395876923
    CPU time for vj and vk  12530.12 sec, wall time    767.68 sec
Ewald components = 6.77773183084737, -128.779455527716, 5.42224205397643
E1 = (-87.88151790515913-9.303716669329412e-17j)  Ecoul = 61.27552437881236  Exc = -25.67727630713729
cycle= 1 E= -168.862751476376  delta_E= -0.754  |g|=  7.8  |ddm|= 10.4
    CPU time for cycle= 1  12718.69 sec, wall time    773.86 sec
HOMO = 0.660962701048  LUMO = 0.727139016566
     k-point                  mo_energy
   0 ( 0.000  0.000  0.000)   [-2.71613891 -2.13958464 -1.4433818  -0.71065259 -0.69502337 -0.669954
 -0.54915457 -0.48530915 -0.43454205 -0.18912389 -0.09433385  0.04286141
  0.15681189  0.31311082  0.42458612  0.45554014  0.52214379  0.6609627 ] [0.72713902 0.82479318 0.9412939  1.01722788 1.90043699 2.77026324
 3.49205366 4.50488503]
   1 ( 0.000  0.000  0.500)   [-0.2734202  -0.2734172  -0.26974962 -0.26974962 -0.26974894 -0.26974894
 -0.26300538 -0.26300538 -0.26300448 -0.26300448 -0.1361282  -0.13612763
  0.31309678  0.31309726  0.49203013  0.49203013  0.49203139  0.49203139] [0.78444856 0.78444924 0.88399563 0.88399563 0.88399646 0.88399646
 1.02117485 1.02117626]
   2 ( 0.000  0.500  0.000)   [-0.27902002 -0.27656713 -0.26890853 -0.26828866 -0.26602813 -0.26519079
 -0.26349775 -0.26324075 -0.26225946 -0.26122735 -0.05201519 -0.00287354
  0.15615337  0.21479463  0.25808898  0.33943716  0.37994253  0.45557387] [0.80605059 0.82193348 0.93155876 0.93333697 1.04987808 1.07393636
 1.10430649 1.13675743]
   3 ( 0.000  0.500  0.500)   [-0.27730767 -0.27730707 -0.26928997 -0.26928932 -0.26556581 -0.26556494
 -0.26265693 -0.26265478 -0.26213739 -0.26213671 -0.02528496 -0.02528429
  0.13960027  0.13960085  0.38914379  0.38914488  0.40103113  0.40103175] [0.75844014 0.75844036 0.95031242 0.95031383 1.02741696 1.02741813
 1.13292336 1.13292581]
   4 ( 0.500  0.000  0.000)   [-0.27902002 -0.27656713 -0.26890853 -0.26828866 -0.26602813 -0.26519079
 -0.26349775 -0.26324075 -0.26225946 -0.26122735 -0.05201519 -0.00287354
  0.15615337  0.21479463  0.25808898  0.33943716  0.37994253  0.45557387] [0.80605059 0.82193348 0.93155876 0.93333697 1.04987808 1.07393636
 1.10430649 1.13675743]
   5 ( 0.500  0.000  0.500)   [-0.27730767 -0.27730707 -0.26928997 -0.26928932 -0.26556581 -0.26556494
 -0.26265693 -0.26265478 -0.26213739 -0.26213671 -0.02528496 -0.02528429
  0.13960027  0.13960085  0.38914379  0.38914488  0.40103113  0.40103175] [0.75844014 0.75844036 0.95031242 0.95031383 1.02741696 1.02741813
 1.13292336 1.13292581]
   6 ( 0.500  0.500  0.000)   [-0.27902002 -0.27656713 -0.26890853 -0.26828866 -0.26602813 -0.26519079
 -0.26349775 -0.26324075 -0.26225946 -0.26122735 -0.05201519 -0.00287354
  0.15615337  0.21479463  0.25808898  0.33943716  0.37994253  0.45557387] [0.80605059 0.82193348 0.93155876 0.93333697 1.04987808 1.07393636
 1.10430649 1.13675743]
   7 ( 0.500  0.500  0.500)   [-0.27730767 -0.27730707 -0.26928997 -0.26928932 -0.26556581 -0.26556494
 -0.26265693 -0.26265478 -0.26213739 -0.26213671 -0.02528496 -0.02528429
  0.13960027  0.13960085  0.38914379  0.38914488  0.40103113  0.40103175] [0.75844014 0.75844036 0.95031242 0.95031383 1.02741696 1.02741813
 1.13292336 1.13292581]
nelec by numeric integration = 35.99999999916161
    CPU time for vxc    216.82 sec, wall time      7.90 sec
Ewald components = 8.76453321006536e-07, -0.162059015555054, 0.068912395876923
    CPU time for vj and vk  15301.97 sec, wall time    932.36 sec
Ewald components = 6.77773183084737, -128.779455527716, 5.42224205397643
E1 = (-85.64536983661219-9.090832313622647e-17j)  Ecoul = 58.405993736167176  Exc = -87.88146119962778
cycle= 2 E= -231.700318942965  delta_E= -62.8  |g|=  256  |ddm|= 10.2
    CPU time for cycle= 2  15519.39 sec, wall time    940.29 sec
HOMO = 0.495793817521  LUMO = 0.546179850738
     k-point                  mo_energy
   0 ( 0.000  0.000  0.000)   [-2.71663443 -2.20799105 -1.5167314  -1.05933717 -0.77436074 -0.70857167
 -0.65123439 -0.55006032 -0.45887876 -0.20037687 -0.11524214 -0.0483296
  0.0616696   0.2829166   0.31867288  0.41779751  0.46343453  0.49579382] [0.68750298 0.79086176 0.84574162 0.89280846 1.87536525 2.75850082
 3.48472906 4.45656913]
   1 ( 0.000  0.000  0.500)   [-0.39895321 -0.31881222 -0.27418042 -0.27052625 -0.26994796 -0.26920063
 -0.2679713  -0.26409566 -0.26317858 -0.26257333 -0.14394403 -0.13722396
  0.10879568  0.31191244  0.41413687  0.4904304   0.4905695   0.4909918 ] [0.69519097 0.78383798 0.8158036  0.85164501 0.88322391 0.88329295
 0.8837677  1.01972405]
   2 ( 0.000  0.500  0.000)   [-0.27883294 -0.27623898 -0.26861996 -0.26800756 -0.26578677 -0.2646267
 -0.26327404 -0.2627774  -0.26182889 -0.26063084 -0.052927   -0.00391489
  0.15557864  0.21415775  0.25751057  0.33865411  0.37912326  0.45448557] [0.805584   0.82114647 0.93071842 0.93270345 1.04869668 1.07284571
 1.1031739  1.13529149]
   3 ( 0.000  0.500  0.500)   [-0.27753826 -0.27654543 -0.26929216 -0.26860348 -0.26584112 -0.26461018
 -0.2624387  -0.26231943 -0.26200997 -0.26110358 -0.0265142  -0.02609387
  0.13892629  0.13936818  0.3879975   0.38850947  0.40007815  0.40011212] [0.75769576 0.75808375 0.94938468 0.94952505 1.0262298  1.0267508
 1.13137618 1.1318103 ]
   4 ( 0.500  0.000  0.000)   [-0.27882494 -0.27623576 -0.26862215 -0.26800092 -0.26578505 -0.26463112
 -0.26329147 -0.26277348 -0.26183258 -0.2606274  -0.05293803 -0.00390771
  0.15557734  0.21417692  0.25750233  0.33865326  0.37912837  0.4544823 ] [0.80556994 0.82113472 0.9307136  0.93270636 1.04870273 1.07284995
 1.10317426 1.1352975 ]
   5 ( 0.500  0.000  0.500)   [-0.32291613 -0.27751779 -0.27170186 -0.26904251 -0.26775505 -0.26571096
 -0.26418479 -0.26232283 -0.26207675 -0.26118507 -0.02698741 -0.02652108
  0.13887424  0.13936862  0.38798145  0.38850877  0.40006836  0.40010761] [0.75768322 0.75786679 0.94935963 0.94952423 1.02623361 1.02674505
 1.13137546 1.13177179]
   6 ( 0.500  0.500  0.000)   [-0.28033422 -0.27733169 -0.27378157 -0.26826454 -0.26615979 -0.26576902
 -0.26357086 -0.26282941 -0.26192482 -0.25989656 -0.05746719 -0.00816626
  0.15450577  0.21347443  0.25744724  0.33864794  0.37887094  0.45444665] [0.7946227  0.81637371 0.92905299 0.9326659  1.04781341 1.0726196
 1.10315779 1.13469235]
   7 ( 0.500  0.500  0.500)   [-0.47309574 -0.35454185 -0.30512245 -0.27735531 -0.26884705 -0.26585701
 -0.26515686 -0.26330075 -0.26243295 -0.25597949 -0.20597402 -0.02665749
  0.13383416  0.13871534  0.24099203  0.38644747  0.38796144  0.39995289] [0.54617985 0.75763491 0.85330193 0.94672252 0.94946912 1.02622419
 1.12575387 1.13083775]
nelec by numeric integration = 35.99999999913814
    CPU time for vxc    216.47 sec, wall time      7.88 sec
Ewald components = 8.76453321006536e-07, -0.162059015555054, 0.068912395876923
    CPU time for vj and vk  12834.08 sec, wall time    786.03 sec
Ewald components = 6.77773183084737, -128.779455527716, 5.42224205397643
E1 = (-85.60829316426418-8.944498516415961e-17j)  Ecoul = 58.417717305839844  Exc = -24.48664984429724
cycle= 3 E= -168.256707345613  delta_E= 63.4  |g|= 8.68  |ddm|= 4.09
    CPU time for cycle= 3  13051.15 sec, wall time    793.94 sec
HOMO = 0.427535447934  LUMO = 0.60837378906
     k-point                  mo_energy
   0 ( 0.000  0.000  0.000)   [-2.45738555 -1.97881635 -1.50654891 -0.97866476 -0.87608062 -0.72962425
 -0.53942196 -0.51288851 -0.40849781 -0.36574888 -0.30150488 -0.19268424
 -0.12416618  0.09218075  0.15501062  0.25614407  0.31023916  0.38601126] [0.60837379 0.72922881 0.83673331 1.22881659 1.64857539 2.26368059
 3.56617505 4.53535277]
   1 ( 0.000  0.000  0.500)   [-0.334575   -0.32907037 -0.32374526 -0.31802715 -0.31747399 -0.27668124
 -0.21898042 -0.18432831 -0.16902603 -0.15034202 -0.14526988 -0.14437363
  0.1482352   0.19704871  0.29343703  0.29757356  0.37982091  0.42753545] [0.67910601 0.75938833 0.79944239 0.80247537 0.80512063 0.88374093
 0.89037799 0.89811017]
   2 ( 0.000  0.500  0.000)   [-0.34643363 -0.324134   -0.32256786 -0.31993326 -0.31671559 -0.20884873
 -0.17712258 -0.14852549 -0.14679517 -0.1404627  -0.13147508 -0.06703352
  0.07049092  0.16415106  0.19526037  0.21907556  0.29755996  0.37009956] [0.70819161 0.80990396 0.85216227 0.86474439 0.93425651 0.95103951
 1.02617794 1.05481338]
   3 ( 0.000  0.500  0.500)   [-0.34631101 -0.3241287  -0.32265673 -0.31963455 -0.31676317 -0.20350794
 -0.17781148 -0.14925687 -0.14706801 -0.14049276 -0.13642479 -0.0626713
  0.04435048  0.1222367   0.22887664  0.28443976  0.32342394  0.3516454 ] [0.6731476  0.74647915 0.85131965 0.89708148 0.90150265 0.96894866
 1.00320941 1.06863982]
   4 ( 0.500  0.000  0.000)   [-0.34539951 -0.32495961 -0.32180811 -0.31977835 -0.3179278  -0.20934613
 -0.17718117 -0.1484937  -0.14661088 -0.14078082 -0.13139908 -0.06690033
  0.07169833  0.16417357  0.19499717  0.21898314  0.29788372  0.37018587] [0.70515988 0.80944695 0.85218645 0.86538627 0.9359429  0.95078153
 1.02669738 1.05447613]
   5 ( 0.500  0.000  0.500)   [-0.34529848 -0.32499896 -0.32179623 -0.31957978 -0.3179179  -0.20413635
 -0.19127298 -0.15688094 -0.14750267 -0.14496606 -0.13638978 -0.0657026
  0.04582802  0.12244964  0.22873684  0.28436221  0.32308422  0.35174184] [0.67119643 0.74625722 0.85146084 0.89769649 0.90063808 0.96970853
 1.00371807 1.06853363]
   6 ( 0.500  0.500  0.000)   [-0.34419863 -0.32496235 -0.32282274 -0.31948338 -0.31901717 -0.20863918
 -0.17853846 -0.15272439 -0.14821526 -0.13981635 -0.13120259 -0.07037382
  0.07001715  0.16395937  0.19487336  0.21854972  0.29826771  0.3702708 ] [0.70646356 0.80270589 0.85067847 0.86482032 0.93580333 0.9507406
 1.02561682 1.05433119]
   7 ( 0.500  0.500  0.500)   [-0.34422614 -0.32503896 -0.32362602 -0.32140259 -0.31904455 -0.27138295
 -0.21396616 -0.19647414 -0.18466332 -0.14245053 -0.13786779 -0.12348275
  0.04470398  0.11902862  0.22787017  0.26475393  0.28149946  0.32305773] [0.62727525 0.67439349 0.85153485 0.89006113 0.90121562 0.92525924
 0.96638168 1.06617031]
nelec by numeric integration = 35.999999999029036
    CPU time for vxc    245.57 sec, wall time      8.52 sec
Ewald components = 8.76453321006536e-07, -0.162059015555054, 0.068912395876923
    CPU time for vj and vk  13796.70 sec, wall time    861.22 sec
Ewald components = 6.77773183084737, -128.779455527716, 5.42224205397643
E1 = (-85.98850445617475-9.138214951453019e-17j)  Ecoul = 58.8360393337491  Exc = -24.863303887466056
cycle= 4 E= -168.595250652784  delta_E= -0.339  |g|= 9.52  |ddm|= 7.09
    CPU time for cycle= 4  14042.78 sec, wall time    869.76 sec
HOMO = 0.432412777661  LUMO = 0.603101961592
     k-point                  mo_energy
   0 ( 0.000  0.000  0.000)   [-2.46100583 -1.68954093 -1.52492762 -1.0323298  -0.86854526 -0.7577808
 -0.55213723 -0.51053729 -0.40689225 -0.36791333 -0.26850012 -0.17005114
 -0.05527847  0.06419863  0.11679293  0.1849195   0.35975674  0.43241278] [0.60310196 0.7499056  0.91854284 1.26908398 1.76304064 1.93514332
 3.27128372 4.17002006]
   1 ( 0.000  0.000  0.500)   [-0.33028459 -0.32813189 -0.32357614 -0.31826404 -0.31756181 -0.26401225
 -0.23493211 -0.19883476 -0.1836387  -0.16546612 -0.1599122  -0.15759391
  0.13176821  0.20920714  0.31830035  0.32174555  0.36132444  0.41082385] [0.69219341 0.7473388  0.79201623 0.81029658 0.81118937 0.87317713
 0.88678043 0.89929549]
   2 ( 0.000  0.500  0.000)   [-0.34270015 -0.32440417 -0.32316484 -0.32054927 -0.3163689  -0.20037309
 -0.19143374 -0.1632314  -0.16145109 -0.15567402 -0.13749348 -0.07777994
  0.08098479  0.16420053  0.19316937  0.23617586  0.29464713  0.35916203] [0.72085552 0.79927708 0.85500424 0.87276673 0.94753898 0.95296995
 1.01953026 1.04021428]
   3 ( 0.000  0.500  0.500)   [-0.34262148 -0.3243786  -0.32324152 -0.32023326 -0.31642192 -0.19575436
 -0.19050799 -0.16376655 -0.16169973 -0.15569012 -0.14185276 -0.07699247
  0.05731523  0.11762996  0.25010342  0.29198538  0.31576991  0.33637545] [0.68323899 0.737678   0.86235678 0.89484439 0.91104961 0.98207547
 0.99080901 1.05423304]
   4 ( 0.500  0.000  0.000)   [-0.34149524 -0.32532523 -0.32189414 -0.32045189 -0.31821324 -0.20049254
 -0.19120092 -0.1630797  -0.16137609 -0.15612364 -0.13768766 -0.07777557
  0.08172743  0.16472481  0.19269382  0.2362651   0.29476633  0.35908923] [0.7187763  0.79844077 0.85500097 0.87339145 0.94838069 0.95314546
 1.01990531 1.04025946]
   5 ( 0.500  0.000  0.500)   [-0.34145416 -0.32535364 -0.32186881 -0.32021431 -0.31820269 -0.20748223
 -0.19324432 -0.17215458 -0.16198767 -0.15988063 -0.14197879 -0.08014686
  0.0580727   0.11809936  0.2501592   0.29182852  0.31556668  0.33632116] [0.68170832 0.73731635 0.86252811 0.89399782 0.91157527 0.98250155
 0.9912641  1.05446814]
   6 ( 0.500  0.500  0.000)   [-0.34053921 -0.32515687 -0.32266131 -0.32015566 -0.31928669 -0.20070515
 -0.1924842  -0.16768274 -0.16273597 -0.15498582 -0.13737805 -0.0817004
  0.0805648   0.1642916   0.19296953  0.23578059  0.29521976  0.35903891] [0.71901856 0.79141151 0.85356035 0.87285767 0.94820296 0.95362859
 1.0190491  1.03994878]
   7 ( 0.500  0.500  0.500)   [-0.34072521 -0.32621441 -0.32492446 -0.3220242  -0.31934058 -0.29030431
 -0.22759939 -0.20430838 -0.18904323 -0.15679503 -0.14469131 -0.13883606
  0.05768063  0.11480756  0.24258879  0.25048632  0.28846564  0.3154343 ] [0.61619901 0.68364948 0.86225059 0.89125889 0.89755019 0.92086982
 0.97974817 1.05186729]
nelec by numeric integration = 35.99999999902705
    CPU time for vxc    150.42 sec, wall time      5.20 sec
Ewald components = 8.76453321006536e-07, -0.162059015555054, 0.068912395876923
    CPU time for vj and vk  13854.57 sec, wall time    862.50 sec
Ewald components = 6.77773183084737, -128.779455527716, 5.42224205397643
E1 = (-86.08597577559284-9.131862204348612e-17j)  Ecoul = 58.901971894712396  Exc = -24.86374790571131
cycle= 5 E= -168.627233429484  delta_E= -0.032  |g|= 7.68  |ddm|= 2.41
    CPU time for cycle= 5  14006.99 sec, wall time    867.77 sec
HOMO = 0.404830620675  LUMO = 0.618190537193
     k-point                  mo_energy
   0 ( 0.000  0.000  0.000)   [-2.56364499 -1.9277692  -1.64808348 -0.93763336 -0.86210692 -0.71588815
 -0.57190961 -0.52391593 -0.45567474 -0.34783655 -0.28228207 -0.16519252
 -0.03131271  0.016612    0.12925102  0.22880832  0.35048736  0.39381899] [0.62513314 0.7856437  1.05934685 1.33462471 1.7880575  1.96798699
 3.13332229 4.46241888]
   1 ( 0.000  0.000  0.500)   [-0.33069887 -0.32825893 -0.32406693 -0.31894842 -0.31738144 -0.26771069
 -0.23313653 -0.20084669 -0.18394474 -0.16558192 -0.16008072 -0.15850418
  0.13111437  0.20424945  0.31149888  0.3148273   0.35684064  0.40483062] [0.6896521  0.74786257 0.79068929 0.80917746 0.80967829 0.87186696
 0.88469181 0.89433247]
   2 ( 0.000  0.500  0.000)   [-0.34379276 -0.32469665 -0.32377506 -0.32071665 -0.3162512  -0.2039954
 -0.19315004 -0.16332754 -0.16160352 -0.15579464 -0.13954518 -0.08140145
  0.0775973   0.16056586  0.18931226  0.23113745  0.28998712  0.35364079] [0.71846694 0.79716995 0.85115322 0.87076795 0.94283976 0.94850404
 1.01543325 1.03531228]
   3 ( 0.000  0.500  0.500)   [-0.34371083 -0.32467135 -0.32385968 -0.32037675 -0.31630787 -0.19870448
 -0.19300086 -0.16388681 -0.16186089 -0.15581124 -0.14406796 -0.08054139
  0.05444325  0.11455326  0.24463818  0.28626008  0.31091941  0.33159157] [0.68123322 0.7355747  0.85870513 0.89225152 0.90809681 0.97665893
 0.98737145 1.0492237 ]
   4 ( 0.500  0.000  0.000)   [-0.34245659 -0.32563135 -0.32245448 -0.32061663 -0.31835616 -0.20401976
 -0.19280094 -0.16330725 -0.16150955 -0.1562591  -0.13970721 -0.08143965
  0.07826937  0.16121353  0.18894516  0.23124204  0.29003184  0.35343853] [0.71652827 0.79603789 0.85112179 0.87138123 0.9437605  0.94872805
 1.01572829 1.03550605]
   5 ( 0.500  0.000  0.500)   [-0.34241662 -0.3256664  -0.32243763 -0.320344   -0.31834047 -0.2079585
 -0.19682115 -0.17246586 -0.16209667 -0.16008707 -0.14411997 -0.08380033
  0.05504789  0.11519822  0.24470406  0.28618363  0.31070138  0.33142634] [0.67976366 0.73504534 0.85896085 0.89136308 0.90853374 0.97704526
 0.98782193 1.0496096 ]
   6 ( 0.500  0.500  0.000)   [-0.34158554 -0.32565972 -0.32287039 -0.32033716 -0.31950974 -0.20412919
 -0.19436212 -0.16767823 -0.16289262 -0.15502687 -0.13935321 -0.08519887
  0.0772549   0.16080223  0.18918475  0.23073221  0.29052478  0.35345745] [0.71644811 0.78949628 0.84973173 0.87085895 0.94356202 0.94925875
 1.01491838 1.03507944]
   7 ( 0.500  0.500  0.500)   [-0.34173182 -0.32641356 -0.32526557 -0.322149   -0.31962354 -0.28794455
 -0.22760125 -0.20308103 -0.1922763  -0.15704684 -0.14656087 -0.13944887
  0.05485926  0.11200864  0.23988653  0.24550248  0.283053    0.3105268 ] [0.61819054 0.6815568  0.85858099 0.88963032 0.89557059 0.91876889
 0.97455034 1.04690071]
nelec by numeric integration = 35.99999999902327
    CPU time for vxc    164.53 sec, wall time      5.50 sec
Ewald components = 8.76453321006536e-07, -0.162059015555054, 0.068912395876923
    CPU time for vj and vk  13138.26 sec, wall time    833.73 sec
Ewald components = 6.77773183084737, -128.779455527716, 5.42224205397643
E1 = (-85.87779772594891-9.13635147896906e-17j)  Ecoul = 58.7169565136376  Exc = -24.845208529699278
cycle= 6 E= -168.585531384902  delta_E= 0.0417  |g|= 6.68  |ddm|=  1.4
    CPU time for cycle= 6  13303.46 sec, wall time    839.25 sec
HOMO = 0.409110648225  LUMO = 0.629379322005
     k-point                  mo_energy
   0 ( 0.000  0.000  0.000)   [-2.74547336 -2.10513463 -1.75153179 -0.93616634 -0.84679404 -0.76921486
 -0.5972851  -0.53775469 -0.48774544 -0.34808208 -0.26833344 -0.15602439
 -0.11273041  0.03283938  0.16111153  0.28151504  0.33772387  0.4051701 ] [0.64644427 0.85027789 1.18484897 1.36534132 1.75641761 2.12662513
 3.00113649 4.71942746]
   1 ( 0.000  0.000  0.500)   [-0.3430805  -0.34139183 -0.33792423 -0.3344943  -0.3314048  -0.26987526
 -0.23267232 -0.20176472 -0.18597044 -0.17217826 -0.16738259 -0.16385771
  0.14855516  0.2041389   0.31146779  0.31411514  0.36569588  0.40911065] [0.68658548 0.75772729 0.79571432 0.80635596 0.80730653 0.87358175
 0.88479299 0.89407606]
   2 ( 0.000  0.500  0.000)   [-0.35643433 -0.33955687 -0.338833   -0.33408221 -0.33055581 -0.2078569
 -0.19765859 -0.17103608 -0.168808   -0.16356862 -0.14511273 -0.08146428
  0.07653421  0.16167405  0.19010159  0.23068343  0.29107352  0.35669681] [0.71651661 0.79861418 0.85079269 0.86887587 0.94239537 0.94788777
 1.01675336 1.03863991]
   3 ( 0.000  0.500  0.500)   [-0.35636846 -0.33960858 -0.33889307 -0.33378338 -0.33062049 -0.2032709
 -0.19670891 -0.17153698 -0.16905331 -0.16359064 -0.14954555 -0.08040443
  0.0525994   0.11586457  0.24367628  0.28709999  0.3128656   0.33497349] [0.6791917  0.73627206 0.85735338 0.89301024 0.90588112 0.97589698
 0.98919808 1.052472  ]
   4 ( 0.500  0.000  0.000)   [-0.35464282 -0.34016594 -0.33707498 -0.33491435 -0.33307151 -0.20797736
 -0.19717959 -0.17057318 -0.16892497 -0.16404646 -0.14543881 -0.08138139
  0.07712565  0.1620657   0.18969995  0.23087017  0.29110109  0.35674555] [0.71469671 0.79778086 0.85069228 0.86946523 0.94375091 0.9478389
 1.01700745 1.03847615]
   5 ( 0.500  0.000  0.500)   [-0.35463979 -0.34022311 -0.33709156 -0.33484236 -0.33286118 -0.21053193
 -0.20131536 -0.17872658 -0.16953535 -0.16733878 -0.14964282 -0.08301377
  0.0532354   0.11614135  0.24379981  0.28701998  0.3126393   0.33507911] [0.67785269 0.73578091 0.85775039 0.89225111 0.90618108 0.97635713
 0.98969171 1.0525102 ]
   6 ( 0.500  0.500  0.000)   [-0.35381781 -0.34084427 -0.33677713 -0.33512864 -0.33355119 -0.20820051
 -0.19863963 -0.1750893  -0.16974116 -0.16242914 -0.1452713  -0.0847925
  0.07651987  0.1618738   0.18981597  0.23025957  0.29162661  0.35667793] [0.71372033 0.79183382 0.84955704 0.86916704 0.94374221 0.94832246
 1.01617892 1.03844933]
   7 ( 0.500  0.500  0.500)   [-0.35389682 -0.34093722 -0.3369735  -0.33610452 -0.33445321 -0.27895946
 -0.22547003 -0.20377392 -0.19504431 -0.16448171 -0.15195386 -0.14080415
  0.05349409  0.11342563  0.24253951  0.25712111  0.28414465  0.31246893] [0.62937932 0.67937576 0.8572551  0.89155881 0.89774726 0.92227797
 0.9742705  1.05012021]
nelec by numeric integration = 35.99999999902564
    CPU time for vxc    201.34 sec, wall time      6.55 sec
Ewald components = 8.76453321006536e-07, -0.162059015555054, 0.068912395876923
    CPU time for vj and vk  13328.88 sec, wall time    828.87 sec
Ewald components = 6.77773183084737, -128.779455527716, 5.42224205397643
E1 = (-85.72965057439573-9.13355627024312e-17j)  Ecoul = 58.560553788502304  Exc = -24.807790516531384
cycle= 7 E= -168.556368945317  delta_E= 0.0292  |g|= 6.75  |ddm|= 1.18
    CPU time for cycle= 7  13531.11 sec, wall time    835.44 sec
HOMO = 0.436764845029  LUMO = 0.62937767006
     k-point                  mo_energy
   0 ( 0.000  0.000  0.000)   [-2.73849237 -2.10058266 -1.70746607 -1.06850813 -0.84517633 -0.76553899
 -0.59625147 -0.56698691 -0.49266769 -0.34570912 -0.27643381 -0.16877736
 -0.07779164  0.01150038  0.15796429  0.26828374  0.34479469  0.43676485] [0.64416351 0.86305064 1.17306578 1.38684405 1.46265367 2.1915242
 2.92856064 4.71246419]
   1 ( 0.000  0.000  0.500)   [-0.34414237 -0.34208445 -0.33912147 -0.33609093 -0.33206188 -0.27157111
 -0.23397755 -0.20428634 -0.18794273 -0.17427266 -0.16962534 -0.16625095
  0.14668552  0.20188479  0.30920142  0.31156169  0.36161992  0.40460073] [0.68580917 0.75659805 0.79440952 0.8059909  0.80677918 0.8719973
 0.88283803 0.89167492]
   2 ( 0.000  0.500  0.000)   [-0.35766606 -0.34076524 -0.34031372 -0.33500696 -0.33138789 -0.21013313
 -0.2002794  -0.17327943 -0.17103715 -0.16583397 -0.14736294 -0.08461517
  0.07513853  0.1593764   0.18785993  0.22875642  0.28821339  0.35287267] [0.71591905 0.79664446 0.84861368 0.86803428 0.9399912  0.94586734
 1.01395383 1.03489173]
   3 ( 0.000  0.500  0.500)   [-0.35759915 -0.34086196 -0.34033043 -0.33470311 -0.33145613 -0.20571381
 -0.19920396 -0.17377225 -0.1712827  -0.16585835 -0.15176066 -0.08373866
  0.05158424  0.11370905  0.24180608  0.28428541  0.30964868  0.33125481] [0.67857659 0.73442592 0.85584728 0.89100875 0.90489206 0.97356961
 0.98639265 1.04866645]
   4 ( 0.500  0.000  0.000)   [-0.35562621 -0.34134755 -0.3384388  -0.33616086 -0.33405198 -0.21022849
 -0.19978549 -0.17278708 -0.17113391 -0.16633122 -0.14769824 -0.08453768
  0.07573723  0.15981464  0.18746496  0.22894678  0.28823794  0.3529091 ] [0.71408994 0.79570607 0.84847478 0.86860448 0.94129694 0.9460451
 1.01416316 1.03473418]
   5 ( 0.500  0.000  0.500)   [-0.35563153 -0.34141113 -0.33845102 -0.33610463 -0.33380675 -0.21276119
 -0.20357869 -0.18101413 -0.17172039 -0.16957467 -0.15182967 -0.08640147
  0.05224887  0.1140183   0.2419194   0.28423678  0.30939489  0.33136616] [0.67725303 0.73385202 0.85630238 0.89024032 0.90511782 0.97406523
 0.98689145 1.04871883]
   6 ( 0.500  0.500  0.000)   [-0.35495455 -0.34214843 -0.33799292 -0.33627808 -0.33446323 -0.21054725
 -0.20126269 -0.17734361 -0.17184684 -0.16462662 -0.14757461 -0.08793196
  0.07520765  0.15971728  0.18758106  0.22834703  0.28877072  0.35279099] [0.71291449 0.78987756 0.84737413 0.86837235 0.94122402 0.94652001
 1.01336722 1.03478344]
   7 ( 0.500  0.500  0.500)   [-0.3550283  -0.3422469  -0.33805709 -0.33738639 -0.33540418 -0.2800021
 -0.22745206 -0.20558642 -0.1972655  -0.16676259 -0.15417092 -0.14310746
  0.05260061  0.11144671  0.24069691  0.25420652  0.28143043  0.30919007] [0.62937767 0.67864712 0.85570308 0.88967754 0.89668653 0.92089364
 0.9720686  1.04638031]
nelec by numeric integration = 35.999999999024446
    CPU time for vxc    243.65 sec, wall time      8.25 sec
Ewald components = 8.76453321006536e-07, -0.162059015555054, 0.068912395876923
    CPU time for vj and vk  13754.52 sec, wall time    838.84 sec
Ewald components = 6.77773183084737, -128.779455527716, 5.42224205397643
E1 = (-85.73126977319914-9.136605588853236e-17j)  Ecoul = 58.572306577823184  Exc = -24.815120877737336
cycle= 8 E= -168.553565716005  delta_E= 0.0028  |g|= 6.22  |ddm|= 0.776
    CPU time for cycle= 8  13999.01 sec, wall time    847.12 sec
HOMO = 0.483458900341  LUMO = 0.623274096223
     k-point                  mo_energy
   0 ( 0.000  0.000  0.000)   [-2.83393553 -2.22973198 -1.72644491 -1.19371575 -0.85705403 -0.78516166
 -0.67711768 -0.58993979 -0.48569851 -0.35507709 -0.29500738 -0.17365229
 -0.01802022  0.05183467  0.17202113  0.26774086  0.35515687  0.4834589 ] [0.6232741  0.87692306 1.11325891 1.36004554 1.49464976 2.28034401
 2.98375158 4.71589471]
   1 ( 0.000  0.000  0.500)   [-0.33683474 -0.3356241  -0.33265622 -0.3288998  -0.32617195 -0.2697339
 -0.2380374  -0.21090987 -0.19537013 -0.18510385 -0.18034443 -0.17423721
  0.15334746  0.20227134  0.31269786  0.31478999  0.36001736  0.39919009] [0.68925276 0.75723628 0.79785321 0.80912493 0.81051522 0.86814022
 0.87750019 0.89091333]
   2 ( 0.000  0.500  0.000)   [-0.35060585 -0.33456339 -0.33304838 -0.32882188 -0.32480959 -0.21333261
 -0.20928142 -0.18376095 -0.1817883  -0.17645512 -0.15274454 -0.08969857
  0.07719249  0.15671764  0.18640427  0.23092044  0.28652126  0.34871042] [0.71916478 0.7920384  0.84770722 0.86967512 0.93916637 0.94798806
 1.01077074 1.02944302]
   3 ( 0.000  0.500  0.500)   [-0.35053083 -0.33465428 -0.33307394 -0.32846893 -0.32487185 -0.2121529
 -0.20542035 -0.18419157 -0.18202593 -0.17647087 -0.15610738 -0.0900057
  0.05457427  0.11060973  0.24506183  0.28336249  0.30712687  0.32605046] [0.68098484 0.73136436 0.85638868 0.88891805 0.90830401 0.97485636
 0.98139548 1.04348795]
   4 ( 0.500  0.000  0.000)   [-0.34867545 -0.334576   -0.33193965 -0.32921589 -0.32796389 -0.21335123
 -0.20851462 -0.18330343 -0.18170472 -0.17754294 -0.15288673 -0.08959059
  0.07762512  0.15723414  0.18608887  0.23109226  0.28643294  0.34860733] [0.71790044 0.7909469  0.84756531 0.87009654 0.94002257 0.94860494
 1.01074112 1.02951331]
   5 ( 0.500  0.000  0.500)   [-0.34866321 -0.3346406  -0.33196379 -0.32904716 -0.32777775 -0.22082552
 -0.20706094 -0.19068872 -0.18214219 -0.18050592 -0.15602842 -0.09218479
  0.0549534   0.11098445  0.2451318   0.28339818  0.30688409  0.32606558] [0.68002325 0.73069203 0.85689786 0.88820229 0.90826482 0.97536517
 0.98175791 1.04373483]
   6 ( 0.500  0.500  0.000)   [-0.34874553 -0.33507422 -0.33100661 -0.32982211 -0.32782541 -0.21412075
 -0.20957982 -0.18733211 -0.18268346 -0.17552453 -0.15283487 -0.09284858
  0.07737207  0.15694188  0.18617953  0.2305372   0.28694121  0.34862298] [0.71624068 0.78603748 0.84666849 0.87005645 0.93984468 0.94913279
 1.0100255  1.02937345]
   7 ( 0.500  0.500  0.500)   [-0.34881455 -0.33526937 -0.33122762 -0.33079037 -0.32865417 -0.27924674
 -0.2327222  -0.2103695  -0.20159493 -0.17743685 -0.15819896 -0.14821861
  0.05553582  0.10845319  0.24400746  0.25647751  0.28089853  0.30678505] [0.63475813 0.68081533 0.8560774  0.88810881 0.90001228 0.92145264
 0.97382882 1.04133426]
nelec by numeric integration = 35.99999999902555
    CPU time for vxc    217.29 sec, wall time      7.84 sec
Ewald components = 8.76453321006536e-07, -0.162059015555054, 0.068912395876923
    CPU time for vj and vk  11948.63 sec, wall time    725.49 sec
Ewald components = 6.77773183084737, -128.779455527716, 5.42224205397643
E1 = (-85.66373012267704-9.147108797399189e-17j)  Ecoul = 58.50443857360992  Exc = -24.803158889194858
cycle= 9 E= -168.541932081154  delta_E= 0.0116  |g|= 6.77  |ddm|= 1.13
    CPU time for cycle= 9  12171.57 sec, wall time    733.54 sec
HOMO = 0.45494712926  LUMO = 0.60973766416
     k-point                  mo_energy
   0 ( 0.000  0.000  0.000)   [-3.54396415 -2.89136933 -2.75133732 -1.85618726 -1.23496952 -0.88432151
 -0.76954145 -0.69363326 -0.47949314 -0.34899724 -0.26305723 -0.16132108
  0.04053444  0.05541328  0.20690864  0.27579859  0.33236542  0.45494713] [0.60973766 0.89058825 1.17615611 1.49378728 1.8187327  2.91707669
 3.60639497 5.47455461]
   1 ( 0.000  0.000  0.500)   [-0.35943968 -0.3584533  -0.35627524 -0.35165081 -0.34633287 -0.29574336
 -0.23184186 -0.21126178 -0.18880501 -0.18275026 -0.17844036 -0.17765549
  0.15726188  0.1727224   0.27225376  0.27350697  0.33575084  0.36240486] [0.6700807  0.75460004 0.79435937 0.79566358 0.80850317 0.8639606
 0.86652444 0.87054782]
   2 ( 0.000  0.500  0.000)   [-0.37474278 -0.35965091 -0.35674172 -0.3505047  -0.34664938 -0.23565608
 -0.2186164  -0.18169328 -0.17952489 -0.17379417 -0.16358912 -0.11195225
  0.05488266  0.13668861  0.16320094  0.19938358  0.25691678  0.3150199 ] [0.70099853 0.78171333 0.82371303 0.85500373 0.91201503 0.91972254
 0.98843685 1.00237182]
   3 ( 0.000  0.500  0.500)   [-0.3746737  -0.35973994 -0.35675327 -0.35019551 -0.34672888 -0.23056026
 -0.2189255  -0.18227077 -0.17979565 -0.17394006 -0.16817923 -0.11132124
  0.03450884  0.0941168   0.21091292  0.25045367  0.27528394  0.29667551] [0.666545   0.71853674 0.83673138 0.87148286 0.8864021  0.94288463
 0.96468407 1.01451885]
   4 ( 0.500  0.000  0.000)   [-0.37209844 -0.35856878 -0.35627095 -0.35188827 -0.35042222 -0.2350871
 -0.21754128 -0.18096512 -0.1794663  -0.17577492 -0.16378399 -0.11150678
  0.05509102  0.13722799  0.16302921  0.19957811  0.25666199  0.31479636] [0.70023454 0.78002563 0.82364461 0.85539533 0.91281172 0.92077502
 0.98811587 1.00266297]
   5 ( 0.500  0.000  0.500)   [-0.37210563 -0.35860921 -0.35632147 -0.3518949  -0.35005188 -0.23003762
 -0.22254223 -0.18661913 -0.17997073 -0.17846458 -0.16802881 -0.11312286
  0.03453717  0.09450823  0.21093052  0.2506538   0.27504188  0.2966721 ] [0.66579449 0.71755151 0.83775704 0.87054465 0.88603441 0.94343464
 0.96502954 1.01501099]
   6 ( 0.500  0.500  0.000)   [-0.37326364 -0.35957701 -0.3547737  -0.35187667 -0.349532   -0.23588537
 -0.21918216 -0.18467754 -0.18004214 -0.17275397 -0.16354812 -0.11356462
  0.05566724  0.13700178  0.16288262  0.19887973  0.25723928  0.31485458] [0.69691788 0.77800933 0.82331999 0.85588609 0.91278341 0.92121766
 0.98741373 1.002673  ]
   7 ( 0.500  0.500  0.500)   [-0.37329422 -0.35966215 -0.35486377 -0.35210451 -0.34999664 -0.25757104
 -0.23328444 -0.21325413 -0.1958914  -0.17562347 -0.16957036 -0.14499691
  0.03580482  0.0925651   0.21010847  0.24928159  0.25172458  0.27497649] [0.65443166 0.6685333  0.83666673 0.87114581 0.88472103 0.92393404
 0.94333522 1.01280828]
nelec by numeric integration = 35.99999999899362
    CPU time for vxc    151.43 sec, wall time      4.74 sec
Ewald components = 8.76453321006536e-07, -0.162059015555054, 0.068912395876923
    CPU time for vj and vk  11278.17 sec, wall time    663.37 sec
Ewald components = 6.77773183084737, -128.779455527716, 5.42224205397643
E1 = (-85.22627352356696-9.189460444761904e-17j)  Ecoul = 58.19100532565956  Exc = -24.838375879511517
cycle= 10 E= -168.453125720311  delta_E= 0.0888  |g|= 7.29  |ddm|= 3.22
    CPU time for cycle= 10  11430.59 sec, wall time    668.15 sec
HOMO = 0.463821460648  LUMO = 0.645865721142
     k-point                  mo_energy
   0 ( 0.000  0.000  0.000)   [-3.46887774 -2.97082965 -2.20124268 -1.77769642 -0.98309762 -0.85559136
 -0.71301682 -0.62297381 -0.41960396 -0.3418503  -0.24945791 -0.11253826
 -0.00386087  0.09935283  0.19716024  0.30362301  0.40235209  0.46382146] [0.64586572 0.85863794 1.0981827  1.55709321 1.68943903 2.74577201
 3.67260623 4.8709223 ]
   1 ( 0.000  0.000  0.500)   [-0.36428808 -0.36154423 -0.35964197 -0.3570839  -0.34995516 -0.28360701
 -0.22985504 -0.19878591 -0.19597498 -0.19238689 -0.18955251 -0.1866277
  0.18552967  0.21072405  0.29306382  0.29464409  0.3635271   0.36520549] [0.67898986 0.75467155 0.80100121 0.8020509  0.86502962 0.86549549
 0.86903679 0.89600031]
   2 ( 0.000  0.500  0.000)   [-0.37665825 -0.36427828 -0.36199215 -0.35571324 -0.35116525 -0.2310363
 -0.22665115 -0.19645307 -0.19442935 -0.18902119 -0.16860159 -0.1141265
  0.06492213  0.14034489  0.16917034  0.21428627  0.26374336  0.31997403] [0.70970709 0.77923754 0.82990143 0.86048596 0.91876868 0.93255811
 0.99100213 1.0027716 ]
   3 ( 0.000  0.500  0.500)   [-0.3766119  -0.36439916 -0.3619812  -0.35543312 -0.35125193 -0.23039526
 -0.22211302 -0.19688558 -0.19466024 -0.18906288 -0.17222426 -0.11521424
  0.04459817  0.09574593  0.22871202  0.26259546  0.28046251  0.29816168] [0.6731089  0.71755476 0.84522236 0.87169129 0.89659772 0.95663901
 0.96307743 1.01564587]
   4 ( 0.500  0.000  0.000)   [-0.3734359  -0.36327305 -0.3612722  -0.35742584 -0.35521606 -0.23114579
 -0.22515169 -0.19586334 -0.19428045 -0.19069371 -0.1689274  -0.11380734
  0.06502746  0.14093226  0.16893537  0.21468307  0.26349344  0.31971984] [0.70916245 0.77762574 0.82979587 0.86096728 0.91921929 0.93370559
 0.99065181 1.00307519]
   5 ( 0.500  0.000  0.500)   [-0.3734903  -0.36334084 -0.36129051 -0.3573955  -0.35489816 -0.22913852
 -0.222589   -0.19623316 -0.19449587 -0.19070363 -0.1719682  -0.11502275
  0.04453881  0.09616391  0.22898688  0.26277984  0.28024647  0.29807995] [0.6725132  0.71660618 0.84617055 0.87089062 0.89633857 0.95700299
 0.96339388 1.01613503]
   6 ( 0.500  0.500  0.000)   [-0.37441097 -0.36431198 -0.36053202 -0.35655301 -0.35461951 -0.23145439
 -0.22572163 -0.19767554 -0.19430079 -0.18843618 -0.16856453 -0.11366027
  0.06565096  0.14084007  0.16922068  0.21411072  0.26391767  0.31966896] [0.70660449 0.77828106 0.82985513 0.86131416 0.91939495 0.93392944
 0.99012927 1.00355765]
   7 ( 0.500  0.500  0.500)   [-0.37446171 -0.36435874 -0.36050872 -0.3564836  -0.35444023 -0.22964063
 -0.2226548  -0.19811758 -0.19457023 -0.18845153 -0.17181948 -0.11460468
  0.04574072  0.09569814  0.22841721  0.26308777  0.2803775   0.2985635 ] [0.67113699 0.71626275 0.84502452 0.87161605 0.89733392 0.9582179
 0.96195675 1.01569977]
nelec by numeric integration = 35.99999999900752
    CPU time for vxc    161.99 sec, wall time      5.24 sec
Ewald components = 8.76453321006536e-07, -0.162059015555054, 0.068912395876923
    CPU time for vj and vk  12002.32 sec, wall time    702.84 sec
Ewald components = 6.77773183084737, -128.779455527716, 5.42224205397643
E1 = (-85.33535624713532-9.217338416638412e-17j)  Ecoul = 58.22697663184247  Exc = -24.793223745862097
cycle= 11 E= -168.481085004047  delta_E= -0.028  |g|= 6.87  |ddm|= 1.86
    CPU time for cycle= 11  12165.33 sec, wall time    708.11 sec
HOMO = 0.430945724263  LUMO = 0.661251833926
     k-point                  mo_energy
   0 ( 0.000  0.000  0.000)   [-3.5051657  -3.01115464 -1.94404875 -1.76308    -1.10654377 -0.82592993
 -0.69672065 -0.60222377 -0.43993897 -0.36768843 -0.2132872  -0.13626016
 -0.04124752  0.08610345  0.17616816  0.32982778  0.4092582   0.43094572] [0.66125183 0.79887511 1.14085855 1.62169178 1.7930291  2.76339483
 3.30057971 4.54090241]
   1 ( 0.000  0.000  0.500)   [-0.35716086 -0.35527746 -0.3524344  -0.34957235 -0.34307083 -0.26802124
 -0.23421446 -0.2220644  -0.21908823 -0.2155002  -0.21254912 -0.20191476
  0.20362706  0.21156649  0.32669673  0.32832166  0.35837619  0.35987985] [0.69649831 0.74418966 0.81286151 0.81421557 0.85532313 0.85861658
 0.87897854 0.9005741 ]
   2 ( 0.000  0.500  0.000)   [-0.36694526 -0.35796205 -0.35559884 -0.34973686 -0.34442874 -0.24637977
 -0.23370493 -0.21988548 -0.21768897 -0.2128767  -0.16309284 -0.11914466
  0.07982908  0.14036611  0.1768378   0.23414921  0.27192921  0.32311134] [0.72625465 0.77097988 0.83675165 0.86908998 0.92686101 0.95577927
 0.99304894 0.9969072 ]
   3 ( 0.000  0.500  0.500)   [-0.36690983 -0.35809897 -0.3555478  -0.349431   -0.34451179 -0.24722016
 -0.23002537 -0.22016212 -0.21789673 -0.21289889 -0.16027811 -0.12492668
  0.06146288  0.09287267  0.25739147  0.27963871  0.28329062  0.29181882] [0.68597211 0.71257048 0.85964378 0.86837169 0.9154815  0.95545825
 0.97984163 1.01035289]
   4 ( 0.500  0.000  0.000)   [-0.36370139 -0.35673878 -0.35498073 -0.35092669 -0.34910432 -0.24543086
 -0.2338499  -0.21908924 -0.21721637 -0.21452935 -0.16320041 -0.11894904
  0.0796306   0.14098751  0.17670029  0.23465491  0.27155265  0.32277402] [0.7265896  0.76903965 0.83665012 0.86964368 0.92720342 0.95664869
 0.99237659 0.99752703]
   5 ( 0.500  0.000  0.500)   [-0.36379827 -0.35679797 -0.35498424 -0.35080401 -0.34879475 -0.24605609
 -0.23103919 -0.21933004 -0.21732907 -0.2145309  -0.15968218 -0.12496765
  0.06082575  0.09358373  0.25783577  0.27983091  0.28310879  0.29160273] [0.68580023 0.71146512 0.86055115 0.86772959 0.91505636 0.95575967
 0.97991698 1.01106336]
   6 ( 0.500  0.500  0.000)   [-0.3651405  -0.35781305 -0.35460115 -0.34987431 -0.34771216 -0.2460548
 -0.23414299 -0.22052065 -0.21737347 -0.21230414 -0.16329091 -0.11887929
  0.08051247  0.140911    0.17704784  0.23408527  0.27176053  0.32282986] [0.72339453 0.76996034 0.83674074 0.86988656 0.92729611 0.95711005
 0.99247386 0.99762372]
   7 ( 0.500  0.500  0.500)   [-0.36522485 -0.35783853 -0.35454992 -0.34964725 -0.34765999 -0.24664282
 -0.23115026 -0.22056961 -0.21761378 -0.21231662 -0.16018871 -0.12456309
  0.06243294  0.09297076  0.25734135  0.28009878  0.28307113  0.2919342 ] [0.68421528 0.71145586 0.85910833 0.86840693 0.91638785 0.95452186
 0.98140251 1.01028225]
nelec by numeric integration = 35.99999999902117
    CPU time for vxc    155.19 sec, wall time      5.02 sec
Ewald components = 8.76453321006536e-07, -0.162059015555054, 0.068912395876923
    CPU time for vj and vk  12452.35 sec, wall time    739.34 sec
Ewald components = 6.77773183084737, -128.779455527716, 5.42224205397643
E1 = (-85.46290331818216-9.208831029474426e-17j)  Ecoul = 58.309392855463834  Exc = -24.768921920299096
cycle= 12 E= -168.501914025909  delta_E= -0.0208  |g|= 6.03  |ddm|= 2.04
    CPU time for cycle= 12  12608.40 sec, wall time    744.39 sec
HOMO = 0.437594175991  LUMO = 0.66855329248
     k-point                  mo_energy
   0 ( 0.000  0.000  0.000)   [-3.41329245 -2.94519553 -1.83234485 -1.7226663  -1.07516329 -0.85886105
 -0.68943337 -0.58228281 -0.4321611  -0.37255026 -0.21641505 -0.12126812
 -0.07596614  0.06008676  0.14134722  0.31927869  0.41565072  0.43759418] [0.66855329 0.78289034 1.07932365 1.58691525 1.82461712 2.61827896
 3.36337485 4.30826347]
   1 ( 0.000  0.000  0.500)   [-0.35236063 -0.35078965 -0.34820051 -0.34540359 -0.33942696 -0.2698357
 -0.23538862 -0.21516527 -0.21254262 -0.20873335 -0.20589328 -0.19843593
  0.19967994  0.20932064  0.31978462  0.32097267  0.35544484  0.35674622] [0.69399231 0.74437372 0.81233319 0.81342841 0.85609344 0.85899184
 0.87595999 0.89743472]
   2 ( 0.000  0.500  0.000)   [-0.36350176 -0.3529901  -0.35106217 -0.34564671 -0.3400886  -0.24211402
 -0.22956893 -0.21303042 -0.21095879 -0.20577188 -0.1644458  -0.12010436
  0.07700087  0.13818106  0.17445705  0.22986272  0.26850208  0.31910747] [0.72379637 0.77085712 0.83489118 0.86810528 0.92407799 0.95136678
 0.99080289 0.99449734]
   3 ( 0.000  0.500  0.500)   [-0.36346386 -0.35312297 -0.351012   -0.34530586 -0.34016624 -0.24293474
 -0.22530481 -0.21333052 -0.21117397 -0.2057945  -0.16340153 -0.12476415
  0.05869954  0.09146239  0.25180882  0.27499138  0.28026409  0.28938281] [0.6842453  0.71237797 0.85688117 0.86772366 0.91277482 0.95466385
 0.97490473 1.00801543]
   4 ( 0.500  0.000  0.000)   [-0.36038489 -0.35211874 -0.3501838  -0.34647308 -0.3449177  -0.24138852
 -0.22940305 -0.21224287 -0.21046576 -0.20739705 -0.16480541 -0.11985364
  0.07677778  0.1391903   0.17414137  0.2302879   0.26827302  0.31863776] [0.72397781 0.76868518 0.83469831 0.86866859 0.92453878 0.95224734
 0.99013243 0.99537802]
   5 ( 0.500  0.000  0.500)   [-0.36047479 -0.35217219 -0.35019593 -0.34626503 -0.34464587 -0.24193364
 -0.22612746 -0.21248895 -0.21060316 -0.20739771 -0.16288701 -0.124964
  0.05820969  0.09247643  0.2521551   0.27505304  0.2800529   0.28905728] [0.68400888 0.7113493  0.85772712 0.86701636 0.91244325 0.95489735
 0.97497758 1.00886515]
   6 ( 0.500  0.500  0.000)   [-0.36194712 -0.35297573 -0.34970163 -0.34572415 -0.34344812 -0.24193607
 -0.22970416 -0.21385731 -0.21056599 -0.20521153 -0.16459967 -0.11987561
  0.0776799   0.13891125  0.17458429  0.22967443  0.26838218  0.31872113] [0.72115656 0.76952881 0.83495231 0.86882662 0.92452886 0.95268077
 0.9902623  0.99534072]
   7 ( 0.500  0.500  0.500)   [-0.36201793 -0.35300009 -0.34965506 -0.34548143 -0.34337375 -0.24246586
 -0.22614293 -0.21397003 -0.21081484 -0.2052245  -0.16318859 -0.12455925
  0.05957044  0.09184205  0.25162911  0.27535355  0.28011744  0.28936167] [0.68258014 0.71127553 0.85637083 0.86762311 0.91353353 0.95387027
 0.97648286 1.00809173]
nelec by numeric integration = 35.999999999017476
    CPU time for vxc    159.71 sec, wall time      5.34 sec
Ewald components = 8.76453321006536e-07, -0.162059015555054, 0.068912395876923
    CPU time for vj and vk  13552.89 sec, wall time    832.12 sec
Ewald components = 6.77773183084737, -128.779455527716, 5.42224205397643
E1 = (-85.60818762043378-9.213082076078459e-17j)  Ecoul = 58.46494469634137  Exc = -24.79690801502968
cycle= 13 E= -168.519632582014  delta_E= -0.0177  |g|= 5.28  |ddm|= 1.02
    CPU time for cycle= 13  13713.29 sec, wall time    837.48 sec
HOMO = 0.463449396985  LUMO = 0.667268448841
     k-point                  mo_energy
   0 ( 0.000  0.000  0.000)   [-3.37844933 -2.97461067 -1.87142698 -1.67525487 -1.10713833 -0.92144893
 -0.68618563 -0.55801369 -0.42033798 -0.37876797 -0.22215305 -0.13817278
 -0.10221709  0.06959205  0.15735889  0.31534331  0.4327616   0.4634494 ] [0.66726845 0.76900886 1.03767755 1.54231264 1.86446785 2.56995312
 3.3785565  4.26032468]
   1 ( 0.000  0.000  0.500)   [-0.33755442 -0.33665552 -0.33477722 -0.33170304 -0.32690144 -0.27029731
 -0.23480799 -0.21665205 -0.21344429 -0.21024666 -0.20727253 -0.19840143
  0.19858542  0.21130807  0.31758776  0.32007662  0.35818703  0.35975338] [0.69394841 0.7452659  0.81428818 0.81572421 0.85532782 0.85825548
 0.87762905 0.89678852]
   2 ( 0.000  0.500  0.000)   [-0.35082027 -0.33811714 -0.33668095 -0.33157715 -0.3261833  -0.24192229
 -0.23079298 -0.21438106 -0.21236023 -0.20704538 -0.16536235 -0.11868718
  0.07688465  0.13831467  0.17487025  0.22940312  0.26911559  0.32010606] [0.72442921 0.77089305 0.83613544 0.86918922 0.924417   0.95046692
 0.99136235 0.99589721]
   3 ( 0.000  0.500  0.500)   [-0.35076296 -0.33824674 -0.33663591 -0.33114052 -0.3262449  -0.2428407
 -0.22667144 -0.21468759 -0.21258837 -0.20705201 -0.1644977  -0.12299761
  0.05866502  0.09166278  0.25041293  0.27342616  0.28254421  0.29132814] [0.68454435 0.71366517 0.85518338 0.87024497 0.91404378 0.95500369
 0.97352248 1.00990201]
   4 ( 0.500  0.000  0.000)   [-0.34818176 -0.33758345 -0.335537   -0.33185377 -0.33109176 -0.24108799
 -0.23058069 -0.21358877 -0.21182618 -0.20892832 -0.16564915 -0.11834924
  0.07681489  0.13953221  0.17442933  0.22963682  0.26904392  0.31946982] [0.72450684 0.76859599 0.83575488 0.86959346 0.92513557 0.95159841
 0.9905201  0.99687718]
   5 ( 0.500  0.000  0.500)   [-0.34824166 -0.33761812 -0.33555132 -0.33156765 -0.33079089 -0.24175762
 -0.22744208 -0.21379987 -0.21198713 -0.20891923 -0.1639327  -0.12316803
  0.05840705  0.09283169  0.25046688  0.27347055  0.28229274  0.29095408] [0.68434098 0.71256311 0.85599981 0.86970987 0.9135394  0.95507167
 0.97392703 1.01060764]
   6 ( 0.500  0.500  0.000)   [-0.35015201 -0.33840814 -0.33486039 -0.33148357 -0.32908146 -0.24200069
 -0.23083348 -0.21529407 -0.21164929 -0.2064473  -0.16527542 -0.11851499
  0.07777517  0.13905397  0.17494113  0.2288449   0.26910413  0.3196158 ] [0.72190002 0.76962312 0.83615719 0.86957928 0.92494933 0.95220326
 0.99062016 0.99661576]
   7 ( 0.500  0.500  0.500)   [-0.35017724 -0.33843797 -0.33482643 -0.33115648 -0.32897255 -0.24273253
 -0.22732028 -0.21536495 -0.21191023 -0.20645878 -0.16410256 -0.12289248
  0.05979496  0.09202031  0.24974099  0.27383877  0.28237212  0.29130987] [0.68308068 0.71256416 0.85467282 0.87026827 0.91435497 0.95412991
 0.97551231 1.00983015]
nelec by numeric integration = 35.999999999018996
    CPU time for vxc    156.23 sec, wall time      5.06 sec
Ewald components = 8.76453321006536e-07, -0.162059015555054, 0.068912395876923
    CPU time for vj and vk  12496.54 sec, wall time    734.31 sec
Ewald components = 6.77773183084737, -128.779455527716, 5.42224205397643
E1 = (-85.68043489270049-9.215509354867934e-17j)  Ecoul = 58.536975201766026  Exc = -107.47963486462662
cycle= 14 E= -251.202576198453  delta_E= -82.7  |g|=  246  |ddm|= 0.764
    CPU time for cycle= 14  12653.54 sec, wall time    739.39 sec
HOMO = 0.509048653722  LUMO = 0.646713833615
     k-point                  mo_energy
   0 ( 0.000  0.000  0.000)   [-3.36419459 -3.05613365 -2.22301608 -1.77153671 -1.26603239 -1.07830573
 -0.74932944 -0.56875998 -0.45384838 -0.36788211 -0.26573974 -0.21496397
 -0.12324383  0.08613714  0.1389983   0.29487495  0.35478922  0.50904865] [0.64671383 0.82728888 1.05054067 1.38821986 1.87031743 2.56782395
 3.71322543 4.05641937]
   1 ( 0.000  0.000  0.500)   [-0.33026636 -0.32918604 -0.32705902 -0.32295329 -0.31933999 -0.27363995
 -0.24336443 -0.23655482 -0.22150983 -0.22047336 -0.21760882 -0.20562641
  0.18634763  0.19755707  0.3172184   0.32044196  0.34294051  0.35722727] [0.69530758 0.74107456 0.8161734  0.81755028 0.8462744  0.85196632
 0.85569133 0.88245573]
   2 ( 0.000  0.500  0.000)   [-0.34344495 -0.33030869 -0.32841388 -0.32376784 -0.31821734 -0.24705938
 -0.23555958 -0.22104665 -0.21905953 -0.21358525 -0.16726925 -0.12129688
  0.07712737  0.13650772  0.17406903  0.22900736  0.26800721  0.3181339 ] [0.72581769 0.76841036 0.83555251 0.8695922  0.92335252 0.95092733
 0.98989654 0.99312229]
   3 ( 0.000  0.500  0.500)   [-0.34336306 -0.33043863 -0.32833124 -0.32328152 -0.31826922 -0.24803056
 -0.23194381 -0.221336   -0.21929355 -0.21359189 -0.16550143 -0.12613999
  0.05952586  0.08964437  0.25065869  0.27177869  0.28162109  0.28879558] [0.68544604 0.7122762  0.85437547 0.86970598 0.91559474 0.95231549
 0.97314413 1.0074596 ]
   4 ( 0.500  0.000  0.000)   [-0.34078885 -0.3296669  -0.32762558 -0.32395974 -0.32308263 -0.24609928
 -0.23547867 -0.22007357 -0.21832327 -0.21589366 -0.16746885 -0.12086798
  0.0770996   0.13780624  0.17356233  0.22915561  0.26801862  0.31743636] [0.72595843 0.76609879 0.83506886 0.86987497 0.92418772 0.95224956
 0.98883784 0.99419273]
   5 ( 0.500  0.000  0.500)   [-0.34081654 -0.32968206 -0.32765357 -0.32326153 -0.32310206 -0.24929085
 -0.23288383 -0.22248879 -0.21846947 -0.21770063 -0.16487279 -0.12708649
  0.05940523  0.09082263  0.2505339   0.27182714  0.28131858  0.28845143] [0.68538858 0.71111271 0.85519584 0.86927505 0.91487697 0.95227268
 0.97376111 1.00810525]
   6 ( 0.500  0.500  0.000)   [-0.34338629 -0.33079456 -0.32655951 -0.32326451 -0.32075993 -0.24763148
 -0.23575657 -0.22267943 -0.2187958  -0.21297025 -0.16737206 -0.12232676
  0.0780222   0.13717191  0.17409233  0.22834024  0.26798735  0.31758548] [0.7232002  0.76556398 0.83538291 0.86994736 0.92372833 0.95277031
 0.98900836 0.99376398]
   7 ( 0.500  0.500  0.500)   [-0.34341037 -0.33085359 -0.32659009 -0.3234724  -0.32079907 -0.26603656
 -0.2464206  -0.23030235 -0.22791608 -0.21533417 -0.16567711 -0.1487399
  0.06065625  0.08947585  0.24974721  0.26679353  0.27144657  0.28132515] [0.67734659 0.68646318 0.85364815 0.8695992  0.91411842 0.93027323
 0.97447449 1.00646109]
nelec by numeric integration = 35.999999999020474
    CPU time for vxc    154.63 sec, wall time      5.15 sec
Ewald components = 8.76453321006536e-07, -0.162059015555054, 0.068912395876923
    CPU time for vj and vk  11805.80 sec, wall time    702.29 sec
Ewald components = 6.77773183084737, -128.779455527716, 5.42224205397643
E1 = (-85.95812559645188-9.200493048899892e-17j)  Ecoul = 58.80670494778385  Exc = -156.77450682059492
cycle= 15 E= -300.505409112155  delta_E= -49.3  |g|=  489  |ddm|= 2.59
    CPU time for cycle= 15  11961.20 sec, wall time    707.46 sec
HOMO = 0.512031191074  LUMO = 0.643857171453
     k-point                  mo_energy
   0 ( 0.000  0.000  0.000)   [-3.30666266 -3.01665591 -2.20299412 -1.60288433 -1.26770812 -1.04089072
 -0.73896637 -0.54055812 -0.43487638 -0.36718062 -0.25164525 -0.21590817
 -0.12033186  0.04995351  0.11167723  0.26837868  0.38759542  0.51203119] [0.64385717 0.81443081 0.99919687 1.39022705 1.88158343 2.46349453
 3.5964643  3.98802278]
   1 ( 0.000  0.000  0.500)   [-0.33737444 -0.33617186 -0.33423394 -0.33154629 -0.32567673 -0.27440858
 -0.23962418 -0.23212837 -0.21653459 -0.2145769  -0.21328397 -0.20347153
  0.18765076  0.18965692  0.31210297  0.31424713  0.3435156   0.35854984] [0.69132807 0.74324075 0.81243995 0.81448565 0.84795027 0.85462334
 0.85725957 0.87217715]
   2 ( 0.000  0.500  0.000)   [-0.350993   -0.33770927 -0.33616167 -0.33058603 -0.32529414 -0.24407776
 -0.23321137 -0.21690578 -0.21417363 -0.20826241 -0.16840265 -0.12100198
  0.07250724  0.1354853   0.17085059  0.22552105  0.26501432  0.31718117] [0.72116326 0.77013341 0.83026933 0.8672597  0.91896303 0.93880556
 0.98881426 0.99401197]
   3 ( 0.000  0.500  0.500)   [-0.35091128 -0.33783715 -0.33611688 -0.33011738 -0.32535749 -0.24311901
 -0.22777315 -0.21522323 -0.21297315 -0.20739281 -0.16750146 -0.12354333
  0.05638928  0.0908077   0.24660089  0.27024961  0.28136964  0.29042917] [0.6830356  0.71354564 0.85277057 0.87012738 0.91208275 0.95438055
 0.96998695 1.00891698]
   4 ( 0.500  0.000  0.000)   [-0.34813481 -0.3370213  -0.33496087 -0.33125103 -0.33032736 -0.24400254
 -0.23223084 -0.21440575 -0.21260706 -0.20979565 -0.16830535 -0.12039132
  0.07280978  0.13788855  0.17255747  0.22511867  0.26677289  0.31665964] [0.72207309 0.76832518 0.83335909 0.86717642 0.92290837 0.942226
 0.98789061 0.9954157 ]
   5 ( 0.500  0.000  0.500)   [-0.34819145 -0.33704635 -0.3349587  -0.33119998 -0.32976493 -0.24426781
 -0.22871413 -0.21613704 -0.21235572 -0.21104308 -0.16704459 -0.12465149
  0.05644965  0.09197223  0.24642974  0.2702295   0.2810093   0.29016124] [0.68275527 0.71244717 0.85347742 0.86963798 0.91143468 0.95442193
 0.97038825 1.00942605]
   6 ( 0.500  0.500  0.000)   [-0.35020798 -0.33784551 -0.33461253 -0.33053349 -0.32820783 -0.24288195
 -0.23216856 -0.21667434 -0.21261471 -0.2066439  -0.16798813 -0.12068337
  0.07560231  0.13796518  0.17321868  0.22565652  0.26717628  0.31737599] [0.72006757 0.76765172 0.83451459 0.86836603 0.92296251 0.94893035
 0.98894633 0.99554453]
   7 ( 0.500  0.500  0.500)   [-0.35023931 -0.33791921 -0.33462324 -0.33062863 -0.32822778 -0.26040518
 -0.24140521 -0.22532681 -0.22197514 -0.20913337 -0.16785328 -0.1441615
  0.05744734  0.09077107  0.24233861  0.26842442  0.27059474  0.28092494] [0.67844264 0.68704198 0.85064913 0.86981137 0.90759657 0.93362912
 0.97061713 1.0080145 ]
nelec by numeric integration = 35.9999999990193
    CPU time for vxc    150.48 sec, wall time      4.71 sec
Ewald components = 8.76453321006536e-07, -0.162059015555054, 0.068912395876923
    CPU time for vj and vk  12187.54 sec, wall time    738.07 sec
Ewald components = 6.77773183084737, -128.779455527716, 5.42224205397643
E1 = (-85.9831851099232-9.202705922474594e-17j)  Ecoul = 58.838362813665405  Exc = -24.85969330893941
cycle= 16 E= -168.583997248089  delta_E=  132  |g|= 5.56  |ddm|= 0.917
    CPU time for cycle= 16  12339.54 sec, wall time    742.84 sec
HOMO = 0.55918477315  LUMO = 0.649084428772
     k-point                  mo_energy
   0 ( 0.000  0.000  0.000)   [-3.40057292 -2.94212719 -2.15453941 -1.56464105 -1.42577174 -1.16911882
 -0.72003778 -0.52841072 -0.45153356 -0.33805189 -0.30246303 -0.2202096
 -0.04690691  0.08609093  0.09813533  0.29717316  0.42281876  0.55918477] [0.64908443 0.86855598 0.90393103 1.20019291 2.0585091  2.54917868
 3.85191183 4.42686291]
   1 ( 0.000  0.000  0.500)   [-0.3186279  -0.31505018 -0.31253793 -0.31022879 -0.30680772 -0.2716848
 -0.23814325 -0.23097357 -0.21423954 -0.21278086 -0.2112402  -0.20375368
  0.18832037  0.19745905  0.31576981  0.32122424  0.33979718  0.35249818] [0.6967995  0.73897818 0.81792473 0.81979116 0.84933441 0.85187425
 0.85735326 0.88307167]
   2 ( 0.000  0.500  0.000)   [-0.33190816 -0.31528097 -0.31444423 -0.31110628 -0.30462604 -0.24250309
 -0.23020713 -0.21483609 -0.21270886 -0.20692597 -0.16502794 -0.12212903
  0.07683423  0.13433627  0.1732825   0.22771258  0.26595248  0.31440802] [0.72672672 0.7670341  0.8354398  0.87051393 0.92257147 0.95174057
 0.98855427 0.98931164]
   3 ( 0.000  0.500  0.500)   [-0.3317969  -0.31539625 -0.31438689 -0.31040652 -0.30466049 -0.24368456
 -0.22649244 -0.21524635 -0.21308399 -0.20701471 -0.16393343 -0.12692456
  0.05995182  0.0874394   0.25023597  0.27001288  0.27856936  0.2842684 ] [0.686479   0.71126372 0.8554359  0.86784156 0.91645924 0.9507479
 0.97276105 1.00373094]
   4 ( 0.500  0.000  0.000)   [-0.3299125  -0.31580306 -0.31305477 -0.31092012 -0.30859011 -0.24229698
 -0.23006804 -0.21364819 -0.21189169 -0.20875218 -0.16583238 -0.12181985
  0.07707217  0.13604286  0.17229108  0.22790868  0.26611925  0.31376418] [0.72631694 0.76425883 0.83443145 0.87085577 0.92339481 0.95298041
 0.987608   0.99033731]
   5 ( 0.500  0.000  0.500)   [-0.3298615  -0.3158077  -0.31302259 -0.31013142 -0.30858011 -0.24513133
 -0.2273325  -0.21564345 -0.21209478 -0.21042033 -0.16353251 -0.12835559
  0.06022002  0.08911354  0.25006936  0.26986095  0.27826325  0.28401892] [0.68615113 0.71009202 0.85593155 0.86750602 0.91592884 0.95070105
 0.9736264  1.00396843]
   6 ( 0.500  0.500  0.000)   [-0.33242066 -0.31621219 -0.31251394 -0.31009051 -0.30681048 -0.24380025
 -0.23029953 -0.21659039 -0.21170837 -0.20610062 -0.16511385 -0.12339736
  0.07786837  0.13478948  0.17307465  0.22675097  0.26576039  0.31372123] [0.72451427 0.76442689 0.83509777 0.87059399 0.92267142 0.95298001
 0.9876353  0.98963728]
   7 ( 0.500  0.500  0.500)   [-0.33240131 -0.31626819 -0.31250596 -0.31027924 -0.30683316 -0.25792307
 -0.23647754 -0.22339238 -0.22097128 -0.20859586 -0.16391799 -0.14557063
  0.06110154  0.0875095   0.24930669  0.26599281  0.26997096  0.27831518] [0.68124261 0.68857053 0.85469042 0.86788942 0.91530706 0.93270224
 0.9745421  1.00262975]
nelec by numeric integration = 35.999999999010825
    CPU time for vxc    183.46 sec, wall time      6.09 sec
Ewald components = 8.76453321006536e-07, -0.162059015555054, 0.068912395876923
    CPU time for vj and vk  13172.27 sec, wall time    790.82 sec
Ewald components = 6.77773183084737, -128.779455527716, 5.42224205397643
E1 = (-86.11558996906867-9.209450422317106e-17j)  Ecoul = 58.97096480121038  Exc = -24.89520466955854
cycle= 17 E= -168.619311480309  delta_E= -0.0353  |g|= 4.81  |ddm|= 4.12
    CPU time for cycle= 17  13356.47 sec, wall time    796.94 sec
HOMO = 0.577495119245  LUMO = 0.657182569999
     k-point                  mo_energy
   0 ( 0.000  0.000  0.000)   [-3.46523166 -3.01135066 -2.19716025 -1.63642494 -1.39082019 -1.14300819
 -0.73762137 -0.53262192 -0.48004024 -0.34111787 -0.30836674 -0.22122664
 -0.06361254  0.09071771  0.12377775  0.29738892  0.44393932  0.57749512] [0.65718257 0.8472917  0.90373757 1.16411674 2.05439757 2.54097939
 3.92951219 4.53924167]
   1 ( 0.000  0.000  0.500)   [-0.31449478 -0.3089668  -0.30695266 -0.30518612 -0.30164652 -0.27117081
 -0.23958779 -0.23345218 -0.21639171 -0.21575778 -0.20973877 -0.19862221
  0.18789514  0.20607792  0.31524732  0.32319406  0.34543997  0.3584605 ] [0.69675944 0.74134484 0.82009894 0.82145329 0.84849265 0.85256537
 0.85672392 0.89720269]
   2 ( 0.000  0.500  0.000)   [-0.32732385 -0.30952922 -0.30897692 -0.30580008 -0.29926313 -0.24053715
 -0.23004832 -0.21478547 -0.21221265 -0.20712976 -0.16460424 -0.11797704
  0.08013044  0.13811826  0.1775858   0.2296591   0.27101079  0.31849151] [0.72914267 0.76829003 0.84209484 0.87238856 0.92904376 0.96352077
 0.99151797 0.99530989]
   3 ( 0.000  0.500  0.500)   [-0.32719767 -0.30965206 -0.30893658 -0.30511003 -0.29930266 -0.24390234
 -0.22793521 -0.21718224 -0.21472877 -0.20950124 -0.16425749 -0.12457305
  0.06030703  0.08911768  0.24962598  0.2702303   0.28190997  0.28809624] [0.68645582 0.71268326 0.85401348 0.87110358 0.91740246 0.95199305
 0.9725228  1.00759392]
   4 ( 0.500  0.000  0.000)   [-0.32592738 -0.31010614 -0.30744381 -0.30543616 -0.30280205 -0.23912375
 -0.23078103 -0.21517955 -0.21330559 -0.21005645 -0.16592237 -0.11810663
  0.07999457  0.13825953  0.17363811  0.23068426  0.26874476  0.31808446] [0.72740566 0.76527472 0.83665771 0.87325993 0.92544339 0.96149183
 0.99103258 0.99460676]
   5 ( 0.500  0.000  0.500)   [-0.32583217 -0.31011436 -0.30737393 -0.30473765 -0.30279547 -0.24544586
 -0.22881048 -0.21819803 -0.21422053 -0.21264    -0.16385992 -0.12575517
  0.06044438  0.09049562  0.24978552  0.27002919  0.28175229  0.28804431] [0.68615825 0.71168893 0.85453549 0.87085486 0.91725066 0.95192387
 0.973575   1.00759567]
   6 ( 0.500  0.500  0.000)   [-0.32805783 -0.3105571  -0.30707039 -0.30478996 -0.30119959 -0.24387518
 -0.23145634 -0.21875709 -0.21351341 -0.20814862 -0.16520352 -0.12123769
  0.07826539  0.13598724  0.17435406  0.22772509  0.26764988  0.31692443] [0.72547355 0.7653608  0.83646927 0.87155208 0.92395404 0.95286219
 0.98940451 0.99285968]
   7 ( 0.500  0.500  0.500)   [-0.32801051 -0.31063436 -0.30704183 -0.30519916 -0.3012252  -0.25945044
 -0.23745126 -0.22539944 -0.22326753 -0.21046244 -0.16401992 -0.14598641
  0.06127907  0.08885222  0.25337626  0.26713591  0.27186083  0.28199606] [0.67942716 0.68766349 0.85527436 0.87126919 0.92013114 0.93209282
 0.97493928 1.00628874]
nelec by numeric integration = 35.999999999009304
    CPU time for vxc    188.34 sec, wall time      6.25 sec
Ewald components = 8.76453321006536e-07, -0.162059015555054, 0.068912395876923
    CPU time for vj and vk  12528.05 sec, wall time    815.38 sec
Ewald components = 6.77773183084737, -128.779455527716, 5.42224205397643
E1 = (-86.08499583099794-9.202446518634497e-17j)  Ecoul = 58.94176350754245  Exc = -24.886072407045525
cycle= 18 E= -168.608786373393  delta_E= 0.0105  |g|= 4.23  |ddm|= 1.37
    CPU time for cycle= 18  12716.95 sec, wall time    821.64 sec
HOMO = 0.603760882375  LUMO = 0.659194766663
     k-point                  mo_energy
   0 ( 0.000  0.000  0.000)   [-3.4778401  -2.93052085 -2.27847704 -1.63065305 -1.35546016 -1.10628672
 -0.73406963 -0.53062747 -0.48066452 -0.35411011 -0.31429701 -0.21704298
 -0.12078449  0.112438    0.12240174  0.32040417  0.46071026  0.60376088] [0.65919477 0.84768537 0.85235556 1.16161923 1.96665197 2.55571087
 3.87089499 4.79742973]
   1 ( 0.000  0.000  0.500)   [-0.31962474 -0.3151485  -0.31366095 -0.31095886 -0.30771348 -0.27064884
 -0.23785305 -0.23194477 -0.2172733  -0.21477562 -0.20845117 -0.1951423
  0.1918033   0.21083152  0.31616463  0.32464228  0.34938757  0.36028698] [0.69589143 0.74222551 0.81931479 0.82090887 0.85180096 0.85453737
 0.85965455 0.90480712]
   2 ( 0.000  0.500  0.000)   [-0.33250113 -0.31676009 -0.31488024 -0.31171947 -0.30569964 -0.24019066
 -0.22942016 -0.2140352  -0.21088074 -0.20567874 -0.16444894 -0.11668459
  0.08121274  0.13926952  0.18004903  0.23071895  0.27339171  0.31985276] [0.72971257 0.76818023 0.84483186 0.87261752 0.93254372 0.96811362
 0.99286792 0.99802855]
   3 ( 0.000  0.500  0.500)   [-0.33238682 -0.31689986 -0.31483828 -0.31117845 -0.3057333  -0.24432981
 -0.22779867 -0.21696349 -0.21433844 -0.2094795  -0.16450306 -0.12412533
  0.0600338   0.08982207  0.25000085  0.27133392  0.28296684  0.28887704] [0.68628331 0.71258475 0.85484041 0.87093223 0.91655026 0.95331329
 0.97248017 1.00860788]
   4 ( 0.500  0.000  0.000)   [-0.33079793 -0.31588331 -0.3139765  -0.31173982 -0.30983579 -0.23811316
 -0.23034213 -0.21472523 -0.21332253 -0.20964055 -0.16604958 -0.1167686
  0.08134622  0.13856177  0.1745462   0.2321075   0.27022791  0.31971244] [0.72636568 0.76558514 0.83809222 0.87378377 0.92651507 0.96523905
 0.99267065 0.99585705]
   5 ( 0.500  0.000  0.500)   [-0.33075143 -0.31592548 -0.3139929  -0.31108123 -0.30979185 -0.2452526
 -0.22855575 -0.21746352 -0.2145187  -0.21259423 -0.16437202 -0.12463148
  0.06081993  0.09046363  0.25021592  0.27097088  0.28284759  0.28921241] [0.68562104 0.71190916 0.85519148 0.87046627 0.91668978 0.95324668
 0.97419724 1.00835995]
   6 ( 0.500  0.500  0.000)   [-0.33276223 -0.31728028 -0.31354654 -0.3108994  -0.30791974 -0.24399659
 -0.23127154 -0.2183287  -0.21373049 -0.20815338 -0.16531044 -0.12020426
  0.07820045  0.13614502  0.17533124  0.22854188  0.26883849  0.3179767 ] [0.72454411 0.76593082 0.83723343 0.8714399  0.92495586 0.95291261
 0.99026379 0.99347158]
   7 ( 0.500  0.500  0.500)   [-0.33272319 -0.31735424 -0.31352629 -0.31097308 -0.30793315 -0.25607934
 -0.23345046 -0.224643   -0.22196139 -0.21009333 -0.16420891 -0.14180806
  0.06157796  0.08905096  0.25581475  0.27140169  0.27364359  0.28312408] [0.68244859 0.68885766 0.85679355 0.87115594 0.9223232  0.93575237
 0.97576823 1.00712674]
nelec by numeric integration = 35.99999999900868
    CPU time for vxc    157.74 sec, wall time      4.94 sec
Ewald components = 8.76453321006536e-07, -0.162059015555054, 0.068912395876923
    CPU time for vj and vk  12163.37 sec, wall time    721.81 sec
Ewald components = 6.77773183084737, -128.779455527716, 5.42224205397643
E1 = (-86.02279545135443-9.206035820748487e-17j)  Ecoul = 58.84737423672985  Exc = -24.856107468399323
cycle= 19 E= -168.611010325916  delta_E= -0.00222  |g|= 3.38  |ddm|= 4.36
    CPU time for cycle= 19  12322.06 sec, wall time    726.78 sec
HOMO = 0.606869202885  LUMO = 0.671935653733
     k-point                  mo_energy
   0 ( 0.000  0.000  0.000)   [-3.50114498 -2.98056469 -2.27975725 -1.70433462 -1.43486084 -1.10770429
 -0.72446944 -0.51810044 -0.50107847 -0.36818962 -0.30328868 -0.22307035
 -0.11929523  0.13095133  0.14964175  0.33278301  0.46346872  0.6068692 ] [0.67193565 0.85536059 0.9251179  1.13762722 1.90762972 2.58505191
 3.8491259  5.0148944 ]
   1 ( 0.000  0.000  0.500)   [-0.32404593 -0.31832376 -0.31656554 -0.31342171 -0.31095186 -0.27363562
 -0.23512035 -0.2226066  -0.20686369 -0.20438777 -0.19952506 -0.17581724
  0.19249675  0.21768126  0.30475128  0.31745335  0.35451287  0.36106992] [0.68964377 0.74663192 0.81502088 0.81709344 0.85561728 0.8589822
 0.86251147 0.92375424]
   2 ( 0.000  0.500  0.000)   [-0.3366357  -0.3195072  -0.31754033 -0.3144442  -0.30870249 -0.23049078
 -0.22411156 -0.20342523 -0.19827073 -0.19007571 -0.16403549 -0.11056708
  0.08016799  0.14111549  0.18253937  0.22612502  0.27498039  0.31958858] [0.725949   0.77233859 0.84928794 0.87164325 0.93785979 0.9755956
 0.99442499 1.00674402]
   3 ( 0.000  0.500  0.500)   [-0.3365417  -0.31968726 -0.31751968 -0.31398014 -0.30871743 -0.23665485
 -0.22229303 -0.20768857 -0.20500101 -0.19856773 -0.16948232 -0.11997777
  0.05384734  0.09071971  0.23956735  0.2653981   0.28197195  0.2905789 ] [0.68142064 0.71475814 0.85088649 0.87122718 0.90931232 0.95669913
 0.96451302 1.01008636]
   4 ( 0.500  0.000  0.000)   [-0.33491951 -0.31843631 -0.31681522 -0.31456372 -0.31282843 -0.23009894
 -0.2222013  -0.2042391  -0.20207631 -0.19759711 -0.16818404 -0.11193729
  0.07997092  0.1390635   0.17204992  0.22879543  0.26858127  0.31949698] [0.72043759 0.76877158 0.83765324 0.87378072 0.92515935 0.96939539
 0.99429346 0.99967208]
   5 ( 0.500  0.000  0.500)   [-0.3348598  -0.31851362 -0.31681901 -0.31422797 -0.31258204 -0.23813363
 -0.22267644 -0.20662974 -0.20455001 -0.202747   -0.16937743 -0.12102528
  0.05483176  0.09159102  0.24022429  0.26492647  0.28169089  0.29112655] [0.68072442 0.7140582  0.85131779 0.8708996  0.90980739 0.95693229
 0.96633084 1.00967452]
   6 ( 0.500  0.500  0.000)   [-0.33734736 -0.32046115 -0.31616016 -0.31329722 -0.31051736 -0.23697529
 -0.22633821 -0.20857038 -0.20283259 -0.19771755 -0.16741036 -0.11836525
  0.07310223  0.1357808   0.17248604  0.22204969  0.26628693  0.31644183] [0.71811529 0.76887937 0.83538232 0.86909371 0.92299635 0.94501689
 0.98993976 0.99495398]
   7 ( 0.500  0.500  0.500)   [-0.33726179 -0.32054268 -0.31612467 -0.31330886 -0.3105157  -0.24727795
 -0.22287357 -0.21254392 -0.21039216 -0.19977051 -0.16880646 -0.13679512
  0.05566605  0.09065756  0.25191736  0.2705113   0.27388687  0.28213287] [0.67926954 0.69010489 0.85558119 0.87166491 0.92262987 0.94053916
 0.9690239  1.00872528]
nelec by numeric integration = 35.99999999900349
    CPU time for vxc    152.54 sec, wall time      4.83 sec
Ewald components = 8.76453321006536e-07, -0.162059015555054, 0.068912395876923
    CPU time for vj and vk  11553.16 sec, wall time    675.76 sec
Ewald components = 6.77773183084737, -128.779455527716, 5.42224205397643
E1 = (-85.95454837529486-9.211774468966135e-17j)  Ecoul = 58.79543259660063  Exc = -24.85717893157378
cycle= 20 E= -168.59577635316  delta_E= 0.0152  |g|= 3.92  |ddm|= 1.08
    CPU time for cycle= 20  11706.51 sec, wall time    680.62 sec
HOMO = 0.574891558156  LUMO = 0.678891269208
     k-point                  mo_energy
   0 ( 0.000  0.000  0.000)   [-3.5137022  -2.88976882 -2.31482791 -1.85098704 -1.42489392 -1.00925855
 -0.6755989  -0.50492958 -0.49108817 -0.36891449 -0.30357447 -0.2217491
 -0.15773586  0.13891704  0.23700944  0.34619529  0.51921555  0.57489156] [0.72658018 0.86736601 0.9236437  1.19424561 1.74820129 2.58444916
 3.77725571 5.57541447]
   1 ( 0.000  0.000  0.500)   [-0.33184565 -0.32693862 -0.32463068 -0.32113251 -0.31935005 -0.27462266
 -0.23248942 -0.20433249 -0.19934555 -0.19472595 -0.19148939 -0.16974956
  0.20971532  0.21651086  0.30388335  0.31400251  0.36125509  0.36386741] [0.68684049 0.74871673 0.81281503 0.81467016 0.86261408 0.86562704
 0.8870782  0.92316424]
   2 ( 0.000  0.500  0.000)   [-0.34381386 -0.32832081 -0.32559889 -0.32338468 -0.31739991 -0.2274023
 -0.22141748 -0.19809193 -0.1930023  -0.18459394 -0.16237189 -0.10894025
  0.07878464  0.14152456  0.18207521  0.22438384  0.27451522  0.31904679] [0.72287937 0.77343146 0.84831486 0.87031521 0.93785545 0.97388151
 0.9946123  1.00608058]
   3 ( 0.000  0.500  0.500)   [-0.34375356 -0.32849348 -0.32559353 -0.3229852  -0.31740662 -0.23291677
 -0.21902012 -0.20232362 -0.1995798  -0.19226008 -0.16904198 -0.11804692
  0.05246344  0.09165666  0.23733033  0.26547552  0.28128715  0.29084449] [0.67954042 0.7152925  0.85094339 0.87053353 0.90656021 0.95833721
 0.96357697 1.01080339]
   4 ( 0.500  0.000  0.000)   [-0.34205107 -0.32654603 -0.32552527 -0.32349474 -0.32149493 -0.22788289
 -0.21903882 -0.19828959 -0.19645682 -0.19181744 -0.16667826 -0.11080391
  0.07822099  0.13919374  0.17190944  0.22767085  0.26807257  0.31946607] [0.71791681 0.77020291 0.83747436 0.87277391 0.92489398 0.96652722
 0.99490797 0.99960195]
   5 ( 0.500  0.000  0.500)   [-0.34202567 -0.32662381 -0.32552816 -0.32318694 -0.32130223 -0.23343835
 -0.21901953 -0.19894712 -0.19880346 -0.19533144 -0.16890452 -0.11877053
  0.05280249  0.09245651  0.2387015   0.26490984  0.28092235  0.29180813] [0.67896509 0.71467582 0.85128824 0.87027701 0.90741553 0.95899293
 0.96457924 1.01025224]
   6 ( 0.500  0.500  0.000)   [-0.3444638  -0.32932895 -0.32426124 -0.32209315 -0.31917625 -0.23342083
 -0.22324292 -0.20209319 -0.19651905 -0.19201418 -0.16595507 -0.11641062
  0.07156153  0.13610461  0.17234566  0.22098749  0.26585192  0.31644819] [0.71579732 0.77160737 0.83543294 0.86793402 0.92303392 0.94278062
 0.99045447 0.99581449]
   7 ( 0.500  0.500  0.500)   [-0.34439891 -0.32938241 -0.32421991 -0.32168909 -0.31904332 -0.23275486
 -0.2173498  -0.20110548 -0.19312059 -0.18594273 -0.1667091  -0.11818515
  0.0536332   0.09171642  0.24989088  0.27106828  0.28146109  0.29118709] [0.67889127 0.71372265 0.85557326 0.87127216 0.92151346 0.95824878
 0.9681868  1.00997329]
nelec by numeric integration = 35.99999999900063
    CPU time for vxc    161.73 sec, wall time      5.23 sec
Ewald components = 8.76453321006536e-07, -0.162059015555054, 0.068912395876923
    CPU time for vj and vk  12057.58 sec, wall time    726.81 sec
Ewald components = 6.77773183084737, -128.779455527716, 5.42224205397643
E1 = (-85.97477931755631-9.227959415703592e-17j)  Ecoul = 58.80765228328548  Exc = -24.85844348994638
cycle= 21 E= -168.605052167109  delta_E= -0.00928  |g|= 5.37  |ddm|= 1.28
    CPU time for cycle= 21  12221.98 sec, wall time    732.13 sec
HOMO = 0.582301998758  LUMO = 0.678946339649
     k-point                  mo_energy
   0 ( 0.000  0.000  0.000)   [-3.43299197 -2.76098023 -2.2874871  -1.68696265 -1.34897557 -1.05947709
 -0.68858952 -0.50986355 -0.45849848 -0.33518236 -0.31207394 -0.23136609
 -0.21342429  0.1351367   0.21767508  0.32434688  0.52084461  0.582302  ] [0.71474578 0.77412582 0.89653103 1.21929411 1.71104482 2.58640443
 3.59557879 5.53899636]
   1 ( 0.000  0.000  0.500)   [-0.329598   -0.32347359 -0.32184023 -0.31774362 -0.31663515 -0.27386019
 -0.23251906 -0.20912793 -0.19837228 -0.19311427 -0.19192031 -0.17327736
  0.2004775   0.21217304  0.30490626  0.31383219  0.35772664  0.36183463] [0.68681688 0.74810363 0.81336483 0.81450734 0.86214542 0.86385622
 0.87123549 0.91470371]
[...]
 -0.22219035 -0.20379174 -0.20002875 -0.19490383 -0.16215535 -0.11295394
  0.07549319  0.13770825  0.17637713  0.22573544  0.26980045  0.32109891] [0.72078488 0.77321048 0.83937514 0.87017463 0.92579241 0.94739144
 0.99266595 0.99909509]
   7 ( 0.500  0.500  0.500)   [-0.34103558 -0.3275513  -0.32188181 -0.31888736 -0.31715813 -0.23345594
 -0.21807112 -0.2039071  -0.20029228 -0.19493864 -0.16354062 -0.11509116
  0.05643617  0.09178641  0.24400808  0.27187942  0.28603938  0.29527226] [0.68169849 0.71689382 0.85285096 0.87418364 0.91250524 0.95857315
 0.97146246 1.01337033]
nelec by numeric integration = 35.99999999900123
    CPU time for vxc    151.55 sec, wall time      4.80 sec
Ewald components = 8.76453321006536e-07, -0.162059015555054, 0.068912395876923
    CPU time for vj and vk  10974.99 sec, wall time    645.76 sec
Ewald components = 6.77773183084737, -128.779455527716, 5.42224205397643
E1 = (-85.99032910956983-9.223311782080464e-17j)  Ecoul = 58.815583286371  Exc = -100.73676916433088
cycle= 45 E= -244.490996630422  delta_E= -75.9  |g|= 53.9  |ddm|= 0.0624
    CPU time for cycle= 45  11127.15 sec, wall time    650.58 sec
HOMO = 0.572930075582  LUMO = 0.681675076979
     k-point                  mo_energy
   0 ( 0.000  0.000  0.000)   [-3.52359088 -2.94623366 -2.35776909 -1.69735862 -1.13468377 -1.05300358
 -0.6431327  -0.5214229  -0.48454662 -0.40039451 -0.29071731 -0.23520881
 -0.06783028  0.12777619  0.2563161   0.29587732  0.46973412  0.57293008] [0.70431839 0.78305803 0.96425899 1.27598453 2.27753319 2.51596131
 4.31687458 5.20376467]
   1 ( 0.000  0.000  0.500)   [-0.32881104 -0.32477813 -0.3225029  -0.31861986 -0.31741255 -0.27075916
 -0.23132803 -0.20544321 -0.20218225 -0.1986107  -0.19557092 -0.18903403
  0.19523143  0.21449226  0.30896296  0.31628646  0.36205034  0.36478528] [0.68869956 0.74893365 0.81511665 0.81817479 0.86063065 0.86436638
 0.87816455 0.89495986]
   2 ( 0.000  0.500  0.000)   [-0.33972707 -0.32697634 -0.32303041 -0.3212308  -0.31535423 -0.23266291
 -0.22247274 -0.20322839 -0.19916449 -0.19559297 -0.16364202 -0.11288082
  0.07474387  0.13989716  0.1757079   0.22588007  0.27068644  0.32066561] [0.72124153 0.77086907 0.83795747 0.86986735 0.92679428 0.9467986
 0.99303828 1.00062577]
   3 ( 0.000  0.500  0.500)   [-0.33980168 -0.32718622 -0.32320197 -0.32089147 -0.31559023 -0.23325557
 -0.218066   -0.20358965 -0.19939829 -0.19561067 -0.16439301 -0.11635108
  0.05664663  0.09404626  0.24454448  0.27150817  0.28530249  0.29439565] [0.68254853 0.71596584 0.85288499 0.87423822 0.91243408 0.95876791
 0.96980104 1.01456996]
   4 ( 0.500  0.000  0.000)   [-0.33911229 -0.32493506 -0.32361009 -0.32132302 -0.31860539 -0.23215373
 -0.22221325 -0.20134658 -0.20060559 -0.19745881 -0.16350394 -0.11253272
  0.07391401  0.14069256  0.17495537  0.22711653  0.27094357  0.32109928] [0.72156508 0.77021545 0.8374125  0.87049448 0.92703432 0.94662609
 0.99283716 1.00101169]
   5 ( 0.500  0.000  0.500)   [-0.33909654 -0.32491464 -0.3236523  -0.3209041  -0.31845313 -0.23280023
 -0.21813657 -0.20156638 -0.20084983 -0.19742658 -0.16411152 -0.11618334
  0.05606255  0.09483924  0.24579584  0.27091434  0.28509171  0.29475449] [0.68256461 0.71632438 0.85309443 0.87357372 0.91276089 0.95881726
 0.96978631 1.0145206 ]
   6 ( 0.500  0.500  0.000)   [-0.3411262  -0.32755798 -0.32204296 -0.31944228 -0.31725102 -0.23282008
 -0.22219056 -0.20376998 -0.20000625 -0.19487931 -0.16216622 -0.1129402
  0.07547374  0.13771771  0.17637196  0.22571435  0.26979996  0.32110844] [0.72075408 0.7732294  0.83936998 0.87016085 0.92578795 0.94736186
 0.99267071 0.99911579]
   7 ( 0.500  0.500  0.500)   [-0.34110719 -0.3276327  -0.32196175 -0.31896443 -0.31723782 -0.23343499
 -0.21806777 -0.20388618 -0.20026974 -0.19491411 -0.16355938 -0.11507148
  0.05641159  0.09179906  0.24397377  0.27186765  0.28604575  0.29529516] [0.68167508 0.71690513 0.85283526 0.87418823 0.91247453 0.95859467
 0.97143698 1.01338981]
nelec by numeric integration = 35.99999999900122
    CPU time for vxc    151.00 sec, wall time      4.73 sec
Ewald components = 8.76453321006536e-07, -0.162059015555054, 0.068912395876923
    CPU time for vj and vk  12041.28 sec, wall time    698.23 sec
Ewald components = 6.77773183084737, -128.779455527716, 5.42224205397643
E1 = (-85.98947619742692-9.223317766275792e-17j)  Ecoul = 58.81485483956961  Exc = -24.86963634109948
cycle= 46 E= -168.623739341849  delta_E= 75.9  |g|= 2.57  |ddm|= 0.00821
    CPU time for cycle= 46  12192.83 sec, wall time    702.98 sec
HOMO = 0.572415915873  LUMO = 0.681894136562
     k-point                  mo_energy
   0 ( 0.000  0.000  0.000)   [-3.52259942 -2.94372686 -2.35722564 -1.69930598 -1.13387336 -1.05316231
 -0.64335797 -0.52142237 -0.48470021 -0.40012206 -0.29105252 -0.23487677
 -0.06793168  0.12763311  0.25610084  0.29604205  0.46981507  0.57241592] [0.70478363 0.78197028 0.96362192 1.27709173 2.2783756  2.51622572
 4.31495295 5.20626739]
   1 ( 0.000  0.000  0.500)   [-0.32848987 -0.32440576 -0.32228085 -0.31834492 -0.31712559 -0.27051268
 -0.23141204 -0.20571198 -0.20245249 -0.19889855 -0.19584034 -0.18924615
  0.19548662  0.2144374   0.30948052  0.3167763   0.36186256  0.36459942] [0.68901083 0.74872173 0.81530815 0.8183772  0.86048537 0.86421946
 0.8783481  0.89496267]
   2 ( 0.000  0.500  0.000)   [-0.33943286 -0.32665228 -0.32277992 -0.3209296  -0.31506518 -0.23287824
 -0.22251064 -0.20350779 -0.19943724 -0.19587577 -0.16352894 -0.11300853
  0.07495999  0.13986089  0.17580498  0.22616258  0.27074807  0.32064571] [0.72150898 0.77073159 0.83803726 0.86998928 0.92687526 0.94714987
 0.99304501 1.0004535 ]
   3 ( 0.000  0.500  0.500)   [-0.33949992 -0.32685886 -0.32293647 -0.32058402 -0.31528971 -0.23348337
 -0.21812651 -0.20386731 -0.19967112 -0.19589317 -0.1641878  -0.11654628
  0.05690387  0.09396612  0.24498061  0.27174372  0.28526418  0.294216  ] [0.68276219 0.71584956 0.85312601 0.87414831 0.91271892 0.95862064
 0.97014772 1.01440257]
   4 ( 0.500  0.000  0.000)   [-0.3387979  -0.32461196 -0.32331837 -0.32104397 -0.31832006 -0.23236632
 -0.22225178 -0.20161383 -0.20088528 -0.19773571 -0.16340276 -0.11265974
  0.07414102  0.14067271  0.17504774  0.22738938  0.27100648  0.32107714] [0.7218172  0.77006539 0.83749212 0.87061222 0.92711506 0.94699387
 0.99284241 1.00084585]
   5 ( 0.500  0.000  0.500)   [-0.33878315 -0.32459342 -0.32336141 -0.32061757 -0.3181657  -0.23302347
 -0.21820869 -0.20183068 -0.20112815 -0.19770243 -0.16391062 -0.11638642
  0.05633482  0.09477057  0.24622255  0.27114918  0.28505276  0.29457126] [0.68277024 0.71620546 0.85333138 0.87347568 0.91304037 0.9586688
 0.97014591 1.0143609 ]
   6 ( 0.500  0.500  0.000)   [-0.34082377 -0.32725781 -0.32176724 -0.3191293  -0.31694378 -0.23304237
 -0.22223045 -0.20404802 -0.20026979 -0.19516057 -0.16204984 -0.11307599
  0.07568833  0.13768649  0.17647829  0.22600231  0.26985677  0.32108259] [0.72102451 0.77307918 0.83944789 0.87028324 0.92586386 0.94771375
 0.9926818  0.99895046]
   7 ( 0.500  0.500  0.500)   [-0.34080416 -0.32732881 -0.32168559 -0.31865238 -0.31693023 -0.23366762
 -0.21813958 -0.20415523 -0.2005334  -0.1951952  -0.16335566 -0.11527365
  0.05666728  0.0917308   0.24441352  0.27210438  0.28600551  0.29511053] [0.68189414 0.71678475 0.8530719  0.87408627 0.91275943 0.95844958
 0.97178416 1.01323091]
nelec by numeric integration = 35.999999999001304
    CPU time for vxc    161.99 sec, wall time      5.24 sec
Ewald components = 8.76453321006536e-07, -0.162059015555054, 0.068912395876923
    CPU time for vj and vk  12718.90 sec, wall time    785.10 sec
Ewald components = 6.77773183084737, -128.779455527716, 5.42224205397643
E1 = (-85.98982984393307-9.223190080184395e-17j)  Ecoul = 58.81501550250685  Exc = -24.86932656969618
cycle= 47 E= -168.623622554014  delta_E= 0.000117  |g|= 2.56  |ddm|= 0.0299
    CPU time for cycle= 47  12881.48 sec, wall time    790.36 sec
HOMO = 0.5742584233  LUMO = 0.680847877059
     k-point                  mo_energy
   0 ( 0.000  0.000  0.000)   [-3.51386487 -2.93494027 -2.33667769 -1.71077341 -1.12798206 -1.05190387
 -0.64291103 -0.52087268 -0.48299002 -0.39760352 -0.29179147 -0.23714972
 -0.07035718  0.12760648  0.25732644  0.2974895   0.47320836  0.57425842] [0.70716917 0.78207942 0.9612748  1.28167975 2.27855357 2.51678356
 4.2906969  5.1998152 ]
   1 ( 0.000  0.000  0.500)   [-0.32979025 -0.32570326 -0.32360861 -0.31959093 -0.31834466 -0.27163014
 -0.23061861 -0.20479249 -0.20157887 -0.19812143 -0.19493478 -0.18841809
  0.19436915  0.21520077  0.30718984  0.31468067  0.36361414  0.3662636 ] [0.6875468  0.74987969 0.81429331 0.81732207 0.86144109 0.86522706
 0.87747957 0.89528475]
   2 ( 0.000  0.500  0.000)   [-0.34078324 -0.32781718 -0.32385496 -0.32182507 -0.31603111 -0.23186479
 -0.22265693 -0.20270389 -0.19859094 -0.19495767 -0.16420155 -0.11206517
  0.0739927   0.14031882  0.17562161  0.22498477  0.2708582   0.32138232] [0.72019559 0.77171602 0.83784957 0.86944468 0.92674868 0.94550753
 0.9934158  1.00180242]
   3 ( 0.000  0.500  0.500)   [-0.34103018 -0.32812918 -0.32419858 -0.32163022 -0.31649063 -0.23244643
 -0.21816879 -0.20306937 -0.19882429 -0.19497826 -0.16529769 -0.11522911
  0.05562708  0.09463052  0.24296684  0.27086766  0.28606288  0.29579128] [0.68166955 0.71662861 0.85206825 0.87485198 0.91133899 0.95979309
 0.96859832 1.01575671]
   4 ( 0.500  0.000  0.000)   [-0.34020661 -0.325847   -0.32461611 -0.3221209  -0.31961221 -0.23139721
 -0.22239111 -0.20072314 -0.20006426 -0.19686427 -0.16406513 -0.11170117
  0.07315395  0.14114224  0.17485539  0.22620115  0.27114483  0.32180159] [0.72044756 0.7711201  0.83726402 0.87002137 0.92702535 0.94540049
 0.99317931 1.00222252]
   5 ( 0.500  0.000  0.500)   [-0.34018966 -0.32583101 -0.32466173 -0.32175156 -0.31942039 -0.23201934
 -0.21822035 -0.20094762 -0.20031303 -0.19683334 -0.16500193 -0.11507049
  0.05511598  0.09542503  0.24418809  0.27023461  0.28583831  0.29614834] [0.68167577 0.71705339 0.85227561 0.87420119 0.91161613 0.95982085
 0.96862759 1.01570834]
   6 ( 0.500  0.500  0.000)   [-0.34229927 -0.32849116 -0.32299859 -0.32019844 -0.3182403  -0.23202869
 -0.22237619 -0.20327591 -0.19940435 -0.19424225 -0.16275686 -0.11208345
  0.07470989  0.13817905  0.17622241  0.22476532  0.27000184  0.32184149] [0.71970808 0.77408513 0.83926927 0.8697075  0.9257504  0.94610402
 0.99304952 1.0003087 ]
   7 ( 0.500  0.500  0.500)   [-0.34227624 -0.3285659  -0.32293083 -0.31974324 -0.31821431 -0.23262594
 -0.21814194 -0.20341391 -0.19966877 -0.19427779 -0.16444503 -0.11395175
  0.05542923  0.09237705  0.24235883  0.27119792  0.28678913  0.29669709] [0.68084788 0.71757169 0.85201817 0.87478296 0.91132215 0.9596706
 0.97026928 1.01458413]
nelec by numeric integration = 35.99999999900102
    CPU time for vxc    157.44 sec, wall time      5.13 sec
Ewald components = 8.76453321006536e-07, -0.162059015555054, 0.068912395876923
    CPU time for vj and vk  11767.52 sec, wall time    702.34 sec
Ewald components = 6.77773183084737, -128.779455527716, 5.42224205397643
E1 = (-85.97966085783717-9.22383661165975e-17j)  Ecoul = 58.80775797247352  Exc = -24.868390618442678
cycle= 48 E= -168.619775146698  delta_E= 0.00385  |g|= 1.54  |ddm|= 0.247
    CPU time for cycle= 48  11926.98 sec, wall time    707.54 sec
HOMO = 0.574304339414  LUMO = 0.6801851607
     k-point                  mo_energy
   0 ( 0.000  0.000  0.000)   [-3.51079922 -2.93526737 -2.334648   -1.7153044  -1.12211645 -1.05125301
 -0.64203067 -0.51998923 -0.48363782 -0.39706084 -0.29085778 -0.2374316
 -0.07060958  0.12825621  0.25999583  0.29849147  0.4754818   0.57430434] [0.70862882 0.78232601 0.96182642 1.28692847 2.27758949 2.51682596
 4.29074836 5.20461841]
   1 ( 0.000  0.000  0.500)   [-0.33239878 -0.32861023 -0.3265928  -0.32241815 -0.32104884 -0.27206892
 -0.22966225 -0.20406209 -0.20083191 -0.19740435 -0.19421675 -0.18768417
  0.19443171  0.21600731  0.30668644  0.31436247  0.36549106  0.36804481] [0.68658889 0.75100505 0.81330784 0.81623269 0.86247179 0.86630767
 0.87741816 0.89606299]
   2 ( 0.000  0.500  0.000)   [-0.34324805 -0.33066937 -0.32661111 -0.32439333 -0.31864345 -0.23099167
 -0.22250583 -0.20198884 -0.19788915 -0.1942225  -0.16422407 -0.11099765
  0.0736328   0.14114982  0.17600363  0.22485347  0.27148588  0.32266549] [0.71932396 0.77284035 0.83811738 0.86910936 0.92719734 0.94487956
 0.99420236 1.00329619]
   3 ( 0.000  0.500  0.500)   [-0.34367413 -0.33108585 -0.32712096 -0.32436306 -0.31932756 -0.23154215
 -0.21794157 -0.20235984 -0.1981207  -0.19424404 -0.16556425 -0.11394222
  0.05498799  0.0955333   0.24239355  0.27120481  0.28702398  0.29747039] [0.68097087 0.71741882 0.85193046 0.87541561 0.91050652 0.96109308
 0.96828961 1.01720029]
   4 ( 0.500  0.000  0.000)   [-0.34269918 -0.32873847 -0.32758606 -0.32492262 -0.32251552 -0.23051988
 -0.22224094 -0.20000292 -0.19935007 -0.1961612  -0.16409138 -0.11064919
  0.07279252  0.14197602  0.17523716  0.22607817  0.27177691  0.32306671] [0.71956574 0.77222225 0.83754496 0.86967218 0.92746852 0.94479163
 0.99397804 1.00372716]
   5 ( 0.500  0.000  0.500)   [-0.34269276 -0.32872607 -0.32763661 -0.32460841 -0.32229824 -0.23109406
 -0.21798032 -0.20023848 -0.19959691 -0.19613261 -0.16525727 -0.11380079
  0.05448392  0.09633172  0.24362422  0.27058011  0.28678586  0.29781365] [0.68099517 0.71782389 0.85213682 0.87473866 0.91075078 0.96116313
 0.96831083 1.01719289]
   6 ( 0.500  0.500  0.000)   [-0.34488585 -0.33143191 -0.32590964 -0.3228981  -0.32116278 -0.23113071
 -0.22223279 -0.20258289 -0.19871171 -0.19349531 -0.16281433 -0.11099885
  0.07436686  0.13904519  0.17655766  0.22459343  0.27065082  0.32310522] [0.71882618 0.77517682 0.83956132 0.86934089 0.9261987  0.94552142
 0.99383131 1.00183369]
   7 ( 0.500  0.500  0.500)   [-0.34486781 -0.3315094  -0.32584965 -0.32249618 -0.32111591 -0.23168721
 -0.21789417 -0.20274735 -0.19897371 -0.19353142 -0.16470537 -0.11267036
  0.05482045  0.09328434  0.24176153  0.27154272  0.28773163  0.29834768] [0.68018516 0.71831456 0.85188977 0.87532187 0.91042846 0.96101608
 0.96998862 1.01607428]
nelec by numeric integration = 35.99999999900156
    CPU time for vxc    150.62 sec, wall time      4.87 sec
Ewald components = 8.76453321006536e-07, -0.162059015555054, 0.068912395876923
    CPU time for vj and vk  12791.81 sec, wall time    782.01 sec
Ewald components = 6.77773183084737, -128.779455527716, 5.42224205397643
E1 = (-85.97586213384245-9.22343943491096e-17j)  Ecoul = 58.80214697367801  Exc = -24.865720870830284
cycle= 49 E= -168.618917673887  delta_E= 0.000857  |g|= 2.71  |ddm|= 0.0684
    CPU time for cycle= 49  12943.03 sec, wall time    786.91 sec
HOMO = 0.575175936574  LUMO = 0.680267101159
     k-point                  mo_energy
   0 ( 0.000  0.000  0.000)   [-3.50768791 -2.93216619 -2.33585431 -1.71366677 -1.12528729 -1.05133268
 -0.6420927  -0.51989811 -0.48347446 -0.39736805 -0.29099994 -0.23745195
 -0.07070586  0.12816487  0.25993642  0.29881245  0.4748443   0.57517594] [0.70799567 0.77822986 0.96060846 1.28623678 2.27570317 2.51853876
 4.29118185 5.20510169]
   1 ( 0.000  0.000  0.500)   [-0.33217745 -0.32836659 -0.32634163 -0.32217044 -0.32081386 -0.27200926
 -0.22979913 -0.20415361 -0.20091989 -0.19748372 -0.19430067 -0.18777855
  0.19444893  0.2158717   0.30678356  0.3144468   0.36521399  0.36777412] [0.68670078 0.7508598  0.81341871 0.81634967 0.86234784 0.86617373
 0.87743311 0.89594028]
   2 ( 0.000  0.500  0.000)   [-0.34305056 -0.33044041 -0.3263973  -0.32419713 -0.3184425  -0.23111332
 -0.22251429 -0.20207052 -0.19797038 -0.19430924 -0.16421294 -0.11115438
  0.07368086  0.14103801  0.17595765  0.22488488  0.27139293  0.32248485] [0.71942611 0.77269983 0.83808388 0.86914878 0.9271362  0.94496784
 0.99409671 1.00307898]
   3 ( 0.000  0.500  0.500)   [-0.3434423  -0.33083731 -0.32687403 -0.32413826 -0.31908236 -0.23166511
 -0.21795862 -0.20244099 -0.19820196 -0.19433067 -0.16551971 -0.11412841
  0.05506919  0.09541401  0.24249193  0.27118383  0.28687224  0.29722873] [0.68105459 0.71730965 0.85196949 0.87531903 0.91061124 0.96092096
 0.96834442 1.01698708]
   4 ( 0.500  0.000  0.000)   [-0.34247873 -0.32849382 -0.3273349  -0.32468998 -0.32227043 -0.23064006
 -0.22224823 -0.20008731 -0.19942996 -0.19624811 -0.16407798 -0.11080214
  0.07283884  0.14186782  0.17519044  0.22610957  0.2716856   0.32288669] [0.71966924 0.77207983 0.83750935 0.86971161 0.92740765 0.94487824
 0.99387006 1.00351392]
   5 ( 0.500  0.000  0.500)   [-0.34247181 -0.32848101 -0.327385   -0.32436992 -0.32205587 -0.23121897
 -0.21799726 -0.2003216  -0.19967705 -0.19621925 -0.16521373 -0.11398428
  0.05456419  0.09621544  0.24372322  0.27055704  0.28663557  0.29757099] [0.68107847 0.7177169  0.8521749  0.87464338 0.91085745 0.96098492
 0.96836659 1.01697867]
   6 ( 0.500  0.500  0.000)   [-0.34465784 -0.33118553 -0.3256645  -0.32267083 -0.3209158  -0.231254
 -0.22223858 -0.20266114 -0.19879566 -0.19358241 -0.16279738 -0.11115633
  0.07441159  0.13893225  0.17651846  0.22462983  0.27055749  0.32292471] [0.71892998 0.7750348  0.83952254 0.86938103 0.92613857 0.94560723
 0.99372316 1.00161973]
   7 ( 0.500  0.500  0.500)   [-0.34463964 -0.33126269 -0.32560335 -0.32226412 -0.32087096 -0.23181353
 -0.21791241 -0.20282302 -0.19905772 -0.19361853 -0.16466115 -0.11285599
  0.05489917  0.09316848  0.24186259  0.27152019  0.28758137  0.29810719] [0.6802671  0.71820945 0.85192772 0.87522717 0.91053703 0.96083501
 0.97004249 1.01585956]
nelec by numeric integration = 35.99999999900147
    CPU time for vxc    157.83 sec, wall time      5.16 sec
Ewald components = 8.76453321006536e-07, -0.162059015555054, 0.068912395876923
    CPU time for vj and vk  12422.59 sec, wall time    752.54 sec
Ewald components = 6.77773183084737, -128.779455527716, 5.42224205397643
E1 = (-85.97565690129883-9.223474551191734e-17j)  Ecoul = 58.80239568406283  Exc = -117.29995304214071
cycle= 50 E= -261.052695902269  delta_E= -92.4  |g|=  242  |ddm|= 0.0454
    CPU time for cycle= 50  12580.93 sec, wall time    757.73 sec
    CPU time for scf_cycle 643398.98 sec, wall time  38467.85 sec
    CPU time for SCF 643398.99 sec, wall time  38467.85 sec
SCF not converged.
SCF energy = -261.052695902269
nelec by numeric integration = 35.99999999900147
    CPU time for vxc    467.48 sec, wall time     15.31 sec
Ewald components = 8.76453321006536e-07, -0.162059015555054, 0.068912395876923
    CPU time for vj and vk  83387.13 sec, wall time   4917.44 sec

WARN: 78.37 error found in overlap integrals. cell.precision  or  cell.rcut  can be adjusted to improve accuracy.

Traceback (most recent call last):
  File "/central/home/pkozlows/ch121b/gan/dft/szv/222/3/szv_2.py", line 45, in <module>
    e_kn_2 = kmf.get_bands(band_kpts)[0]
             ^^^^^^^^^^^^^^^^^^^^^^^^
  File "/groups/wag/pkozlows/miniconda3/envs/pyscf/lib/python3.11/site-packages/pyscf/pbc/scf/khf.py", line 691, in get_bands
    mo_energy, mo_coeff = self.eig(fock, s1e)
                          ^^^^^^^^^^^^^^^^^^^
  File "/groups/wag/pkozlows/miniconda3/envs/pyscf/lib/python3.11/site-packages/pyscf/pbc/scf/khf.py", line 654, in eig
    e, c = self._eigh(h_kpts[k], s_kpts[k])
           ^^^^^^^^^^^^^^^^^^^^^^^^^^^^^^^^
  File "/groups/wag/pkozlows/miniconda3/envs/pyscf/lib/python3.11/site-packages/pyscf/scf/hf.py", line 1537, in _eigh
    return eig(h, s)
           ^^^^^^^^^
  File "/groups/wag/pkozlows/miniconda3/envs/pyscf/lib/python3.11/site-packages/pyscf/scf/hf.py", line 1183, in eig
    e, c = scipy.linalg.eigh(h, s)
           ^^^^^^^^^^^^^^^^^^^^^^^
  File "/groups/wag/pkozlows/miniconda3/envs/pyscf/lib/python3.11/site-packages/scipy/linalg/_decomp.py", line 593, in eigh
    raise LinAlgError('The leading minor of order {} of B is not '
numpy.linalg.LinAlgError: The leading minor of order 17 of B is not positive definite. The factorization of B could not be completed and no eigenvalues or eigenvectors were computed.
