
#Set velocity (in km/s)
variable v equal 5

#Controls angle of impact
#a = angle from horizontal/10
variable        a equal 9

#Loop through the simulation several times with different random seeds
variable        b equal 1
label           loopb
variable        seed equal 240323*$b
variable        seed equal 240323*1

#Set up impact simulation
print		"<<<<<<<<< Vel=$v, Angle=$a, Test=$b >>>>>>>>>>>"
<<<<<<<<< Vel=5, Angle=9, Test=1 >>>>>>>>>>>
units	        real
newton	     	on
atom_style full

#Periodic boundary conditions
boundary        p p p

#Read the data file
read_data       data.${sname}
read_data       data.pth2o
  triclinic box = (0 0 0) to (44.3939 44.3939 50) with tilt (0 0 0)
  1 by 1 by 1 MPI processor grid
  reading atoms ...
  1539 atoms
  0 = max # of 1-2 neighbors
  0 = max # of 1-3 neighbors
  0 = max # of 1-4 neighbors
  1 = max # of special neighbors

#Obtain the REAX pair coefficients from the ffield file
pair_style      reax/c NULL safezone 5.0 mincap 1200
pair_coeff  	* * ffield.reax Pt O H

#Apply qeq charge equilibration
fix 		qeq all qeq/reax 1 0.0 10.0 1.0e-6 reax/c

#Details of how lammps computes neighboring atoms for pairwise interactions
neighbor        2.5  bin
neigh_modify    delay 10 every 2 check yes one 15000 page 150000

#group impacting H2O by atom ids
group impactor id 1537:1539
3 atoms in group impactor

#Print thermodynamic data every 10 steps
thermo          10

#Randomize initial position and set far to equilibrate
displace_atoms 	impactor move 20.0 20.0 0.0 units box

#Compute the center of mass of the impactor
compute         cmi impactor com
variable        xd equal c_cmi[1]
variable        yd equal c_cmi[2]
variable        zd equal c_cmi[3]
variable        ranangle equal random(0,90,${seed})
variable        ranangle equal random(0,90,240323)
thermo_style    custom step etotal pe ke temp press vol c_cmi[1] c_cmi[2] c_cmi[3]

#Rotate the impactor before beginning simulation
print ">>>>>> Rotated impactor by ${ranangle} <<<<<<<"
>>>>>> Rotated impactor by 38.1471168994904 <<<<<<<
run 0
Neighbor list info ...
  update every 2 steps, delay 10 steps, check yes
  max neighbors/atom: 15000, page size: 150000
  master list distance cutoff = 12.5
  ghost atom cutoff = 12.5
  binsize = 6.25, bins = 8 8 8
  2 neighbor lists, perpetual/occasional/extra = 2 0 0
  (1) pair reax/c, perpetual
      attributes: half, newton off, ghost
      pair build: half/bin/newtoff/ghost
      stencil: half/ghost/bin/3d/newtoff
      bin: standard
  (2) fix qeq/reax, perpetual, copy from (1)
      attributes: half, newton off, ghost
      pair build: copy
      stencil: none
      bin: none
Per MPI rank memory allocation (min/avg/max) = 655.1 | 655.1 | 655.1 Mbytes
Step TotEng PotEng KinEng Temp Press Volume c_cmi[1] c_cmi[2] c_cmi[3] 
       0   -174930.33   -174930.33            0            0   -10163.895    98540.745    22.227217    20.053875    32.690199 
Loop time of 2.6226e-06 on 1 procs for 0 steps with 1539 atoms

152.5% CPU use with 1 MPI tasks x no OpenMP threads

MPI task timing breakdown:
Section |  min time  |  avg time  |  max time  |%varavg| %total
---------------------------------------------------------------
Pair    | 0          | 0          | 0          |   0.0 |  0.00
Bond    | 0          | 0          | 0          |   0.0 |  0.00
Neigh   | 0          | 0          | 0          |   0.0 |  0.00
Comm    | 0          | 0          | 0          |   0.0 |  0.00
Output  | 0          | 0          | 0          |   0.0 |  0.00
Modify  | 0          | 0          | 0          |   0.0 |  0.00
Other   |            | 2.623e-06  |            |       |100.00

Nlocal:    1539 ave 1539 max 1539 min
Histogram: 1 0 0 0 0 0 0 0 0 0
Nghost:    5964 ave 5964 max 5964 min
Histogram: 1 0 0 0 0 0 0 0 0 0
Neighs:    291267 ave 291267 max 291267 min
Histogram: 1 0 0 0 0 0 0 0 0 0

Total # of neighbors = 291267
Ave neighs/atom = 189.257
Ave special neighs/atom = 0
Neighbor list builds = 0
Dangerous builds = 0
displace_atoms  impactor rotate ${xd} ${yd} ${zd} 0.0 0.0 1.0 ${ranangle}
displace_atoms  impactor rotate 22.22721660746 ${yd} ${zd} 0.0 0.0 1.0 ${ranangle}
displace_atoms  impactor rotate 22.22721660746 20.053874955595 ${zd} 0.0 0.0 1.0 ${ranangle}
displace_atoms  impactor rotate 22.22721660746 20.053874955595 32.6901990754796 0.0 0.0 1.0 ${ranangle}
displace_atoms  impactor rotate 22.22721660746 20.053874955595 32.6901990754796 0.0 0.0 1.0 6.82583034038544
displace_atoms  impactor rotate ${xd} ${yd} ${zd} 0.0 1.0 0.0 ${ranangle}
displace_atoms  impactor rotate 22.22721660746 ${yd} ${zd} 0.0 1.0 0.0 ${ranangle}
displace_atoms  impactor rotate 22.22721660746 20.053874955595 ${zd} 0.0 1.0 0.0 ${ranangle}
displace_atoms  impactor rotate 22.22721660746 20.053874955595 32.6901990754796 0.0 1.0 0.0 ${ranangle}
displace_atoms  impactor rotate 22.22721660746 20.053874955595 32.6901990754796 0.0 1.0 0.0 4.71330642700195
displace_atoms  impactor rotate ${xd} ${yd} ${zd} 1.0 0.0 0.0 ${ranangle}
displace_atoms  impactor rotate 22.22721660746 ${yd} ${zd} 1.0 0.0 0.0 ${ranangle}
displace_atoms  impactor rotate 22.22721660746 20.053874955595 ${zd} 1.0 0.0 0.0 ${ranangle}
displace_atoms  impactor rotate 22.22721660746 20.053874955595 32.6901990754796 1.0 0.0 0.0 ${ranangle}
displace_atoms  impactor rotate 22.22721660746 20.053874955595 32.6901990754796 1.0 0.0 0.0 0.0323742628097534

#Simulation timestep
timestep  	0.1

#Print data to lammptrj file
dump            1 all custom ${dumpstep}  ${sname}.$v.lammpstrj id type x y z vx vy vz
dump            1 all custom 100  ${sname}.$v.lammpstrj id type x y z vx vy vz
dump            1 all custom 100  pth2o.$v.lammpstrj id type x y z vx vy vz
dump            1 all custom 100  pth2o.5.lammpstrj id type x y z vx vy vz
dump_modify     1 sort id

#First, minimize structure
min_style       cg
minimize        0.0 1e-6 ${minsteps} 5000
minimize        0.0 1e-6 2000 5000
WARNING: Using 'neigh_modify every 1 delay 0 check yes' setting during minimization (../min.cpp:168)
Per MPI rank memory allocation (min/avg/max) = 657.7 | 657.7 | 657.7 Mbytes
Step TotEng PotEng KinEng Temp Press Volume c_cmi[1] c_cmi[2] c_cmi[3] 
       0   -174930.33   -174930.33            0            0   -10163.895    98540.745    22.227217    20.053875    32.690199 
      10   -181625.68   -181625.68            0            0   -13832.626    98540.745     21.97259    20.156811    32.525824 
      20   -186689.16   -186689.16            0            0    -12641.63    98540.745    21.972412    20.156883    32.525707 
      30   -190196.96   -190196.96            0            0   -9718.5205    98540.745    21.972287    20.156934    32.525626 
      40   -192804.98   -192804.98            0            0    -4428.254    98540.745     21.97235    20.156908    32.525667 
      50   -193626.99   -193626.99            0            0    2523.2199    98540.745    21.972097     20.15701    32.525504 
      60   -193634.19   -193634.19            0            0    2160.4411    98540.745    21.972361    20.156903    32.525675 
      70    -193634.2    -193634.2            0            0    2167.1891    98540.745    21.972466    20.156861    32.525742 
      74    -193634.2    -193634.2            0            0    2166.0932    98540.745    21.972465    20.156861    32.525742 
Loop time of 28.8521 on 1 procs for 74 steps with 1539 atoms

99.2% CPU use with 1 MPI tasks x no OpenMP threads

Minimization stats:
  Stopping criterion = linesearch alpha is zero
  Energy initial, next-to-last, final = 
        -174930.331687     -193634.198347     -193634.198321
  Force two-norm initial, final = 658.218 0.0139891
  Force max component initial, final = 130.267 0.00665489
  Final line search alpha, max atom move = 6.10352e-05 4.06182e-07
  Iterations, force evaluations = 74 167

MPI task timing breakdown:
Section |  min time  |  avg time  |  max time  |%varavg| %total
---------------------------------------------------------------
Pair    | 26.363     | 26.363     | 26.363     |   0.0 | 91.37
Bond    | 9.2745e-05 | 9.2745e-05 | 9.2745e-05 |   0.0 |  0.00
Neigh   | 0.026042   | 0.026042   | 0.026042   |   0.0 |  0.09
Comm    | 0.008249   | 0.008249   | 0.008249   |   0.0 |  0.03
Output  | 0.0016341  | 0.0016341  | 0.0016341  |   0.0 |  0.01
Modify  | 2.4384     | 2.4384     | 2.4384     |   0.0 |  8.45
Other   |            | 0.01461    |            |       |  0.05

Nlocal:    1539 ave 1539 max 1539 min
Histogram: 1 0 0 0 0 0 0 0 0 0
Nghost:    5964 ave 5964 max 5964 min
Histogram: 1 0 0 0 0 0 0 0 0 0
Neighs:    305064 ave 305064 max 305064 min
Histogram: 1 0 0 0 0 0 0 0 0 0

Total # of neighbors = 305064
Ave neighs/atom = 198.222
Ave special neighs/atom = 0
Neighbor list builds = 1
Dangerous builds = 0

#Then, run equilibration
velocity 	all create 100.0 4928459 rot yes dist gaussian #generates initial velocities at 100 K  via a gaussian distribution
fix 		equil all nvt temp 100.0 100.0 50.0 #nvt dynamics on all atoms at starting and ending temps of 100 K w 50 fs damping
run 		${eqsteps}
run 		500
Per MPI rank memory allocation (min/avg/max) = 657.8 | 657.8 | 657.8 Mbytes
Step TotEng PotEng KinEng Temp Press Volume c_cmi[1] c_cmi[2] c_cmi[3] 
      74   -193175.75    -193634.2    458.44859          100    2378.7624    98540.745    21.972465    20.156861    32.525742 
      80   -193175.75   -193634.05     458.2963    99.966783    2376.8158    98540.745    21.972292    20.158703    32.525359 
      90   -193175.75   -193633.14    457.38824    99.768711    2375.2093    98540.745    21.972005    20.161773     32.52472 
     100   -193175.75   -193631.47    455.72403    99.405701    2376.0468    98540.745    21.971717    20.164843    32.524082 
     110   -193175.74    -193629.1    453.35278    98.888467    2379.3898    98540.745    21.971429    20.167913    32.523444 
     120   -193175.74   -193626.01    450.27697    98.217551    2384.9901    98540.745    21.971141    20.170983    32.522806 
     130   -193175.72   -193622.21    446.48199    97.389762     2392.331    98540.745    21.970853    20.174053    32.522167 
     140    -193175.7   -193617.69    441.98672    96.409222    2400.6457    98540.745    21.970566    20.177123    32.521529 
     150   -193175.67   -193612.52    436.85724    95.290345    2409.1323    98540.745    21.970278    20.180193    32.520891 
     160   -193175.61   -193606.77    431.15693    94.046953    2417.3119    98540.745     21.96999    20.183263    32.520253 
     170   -193175.54   -193600.44    424.89443    92.680934    2425.3026    98540.745    21.969702    20.186333    32.519614 
     180   -193175.45   -193593.49    418.04598    91.187103    2433.7245    98540.745    21.969414    20.189404    32.518976 
     190   -193175.32   -193585.94    410.61869     89.56701    2443.3401    98540.745    21.969126    20.192475    32.518337 
     200   -193175.17   -193577.83    402.66672    87.832471    2454.7326    98540.745    21.968838    20.195547    32.517699 
     210   -193174.97   -193569.22    394.24966    85.996482    2468.1683    98540.745     21.96855    20.198619     32.51706 
     220   -193174.74   -193560.13    385.39171    84.064324    2483.5747    98540.745    21.968262    20.201692    32.516421 
     230   -193174.47   -193550.56    376.09045    82.035469    2500.4816    98540.745    21.967974    20.204767    32.515782 
     240   -193174.14   -193540.51    366.37323    79.915882    2518.0172    98540.745    21.967686    20.207842    32.515143 
     250   -193173.77    -193530.1    356.33548    77.726377    2535.1296    98540.745    21.967397    20.210919    32.514503 
     260   -193173.34   -193519.43    346.09303    75.492224    2551.0987    98540.745    21.967109    20.213997    32.513863 
     270   -193172.85   -193508.55    335.69894    73.224991    2565.9433    98540.745     21.96682    20.217078    32.513223 
     280   -193172.31   -193497.46    325.14667    70.923257    2580.3273    98540.745    21.966531    20.220161    32.512582 
     290   -193171.71   -193486.16    314.45031    68.590093     2595.107    98540.745    21.966242    20.223247     32.51194 
     300   -193171.06   -193474.75    303.68314    66.241482    2610.8992    98540.745    21.965952    20.226336    32.511298 
     310   -193170.36    -193463.3    292.93914    63.897927    2628.0117    98540.745    21.965662    20.229428    32.510655 
     320   -193169.62   -193451.89    282.27432    61.571642    2646.5339    98540.745    21.965372    20.232524    32.510011 
     330   -193168.83   -193440.51     271.6791    59.260538    2666.3376    98540.745    21.965081    20.235624    32.509367 
     340   -193168.02   -193429.13    261.10701     56.95448    2686.9127    98540.745     21.96479    20.238729    32.508721 
     350   -193167.19   -193417.74    250.55474    54.652745    2707.1973    98540.745    21.964499    20.241838    32.508075 
     360   -193166.34   -193406.46      240.113    52.375122    2725.8264    98540.745    21.964207    20.244953    32.507427 
     370   -193165.51    -193395.4    229.89017    50.145247    2741.8847    98540.745    21.963914    20.248074    32.506779 
     380   -193164.68   -193384.58    219.89734     47.96554    2755.5195    98540.745    21.963621      20.2512    32.506129 
     390   -193163.88   -193373.96    210.08113    45.824361    2767.7626    98540.745    21.963327    20.254332    32.505477 
     400   -193163.11   -193363.56    200.44924    43.723384    2779.7808    98540.745    21.963033    20.257469    32.504825 
     410   -193162.38   -193353.48     191.0984    41.683714     2792.275    98540.745    21.962739    20.260613    32.504172 
     420    -193161.7   -193343.84    182.14037    39.729727    2805.4547    98540.745    21.962443    20.263762    32.503517 
     430   -193161.05   -193334.68    173.63436    37.874336    2819.2571    98540.745    21.962148    20.266917    32.502861 
     440   -193160.43   -193326.01    165.57505    36.116384    2833.4446    98540.745    21.961851    20.270078    32.502204 
     450   -193159.85   -193317.78     157.9321    34.449251    2847.5196    98540.745    21.961554    20.273245    32.501545 
     460   -193159.29   -193310.01    150.71587    32.875196    2860.5826    98540.745    21.961257    20.276417    32.500886 
     470   -193158.75   -193302.75    144.00379     31.41111    2871.5511    98540.745    21.960959    20.279595    32.500225 
     480   -193158.22    -193296.1    137.87061    30.073297    2879.6985    98540.745     21.96066    20.282779    32.499563 
     490   -193157.71   -193290.01      132.303    28.858852    2885.1624    98540.745    21.960361    20.285969      32.4989 
     500    -193157.2   -193284.43    127.23406    27.753179    2888.8294    98540.745    21.960062    20.289166    32.498236 
     510   -193156.69   -193279.33    122.64674    26.752561    2891.7764    98540.745    21.959762    20.292368     32.49757 
     520   -193156.18   -193274.77    118.59712    25.869231    2894.7441    98540.745    21.959461    20.295577    32.496902 
     530   -193155.67   -193270.82    115.15005    25.117331     2898.016    98540.745    21.959159    20.298794    32.496234 
     540   -193155.15   -193267.48    112.32244    24.500553    2901.5109    98540.745    21.958857    20.302017    32.495564 
     550   -193154.63   -193264.72    110.08691    24.012923    2904.8589    98540.745    21.958554    20.305248    32.494892 
     560   -193154.11   -193262.53    108.42216    23.649796    2907.3918    98540.745    21.958251    20.308486    32.494219 
     570   -193153.58   -193260.93    107.35477     23.41697    2908.2631    98540.745    21.957946    20.311732    32.493544 
     574   -193153.36   -193260.47    107.10706    23.362938     2907.982    98540.745    21.957824    20.313033    32.493273 
Loop time of 86.3141 on 1 procs for 500 steps with 1539 atoms

Performance: 0.050 ns/day, 479.523 hours/ns, 5.793 timesteps/s
99.6% CPU use with 1 MPI tasks x no OpenMP threads

MPI task timing breakdown:
Section |  min time  |  avg time  |  max time  |%varavg| %total
---------------------------------------------------------------
Pair    | 80.121     | 80.121     | 80.121     |   0.0 | 92.82
Bond    | 0.00023842 | 0.00023842 | 0.00023842 |   0.0 |  0.00
Neigh   | 0          | 0          | 0          |   0.0 |  0.00
Comm    | 0.023821   | 0.023821   | 0.023821   |   0.0 |  0.03
Output  | 0.031775   | 0.031775   | 0.031775   |   0.0 |  0.04
Modify  | 6.1319     | 6.1319     | 6.1319     |   0.0 |  7.10
Other   |            | 0.005776   |            |       |  0.01

Nlocal:    1539 ave 1539 max 1539 min
Histogram: 1 0 0 0 0 0 0 0 0 0
Nghost:    5964 ave 5964 max 5964 min
Histogram: 1 0 0 0 0 0 0 0 0 0
Neighs:    311995 ave 311995 max 311995 min
Histogram: 1 0 0 0 0 0 0 0 0 0

Total # of neighbors = 311995
Ave neighs/atom = 202.726
Ave special neighs/atom = 0
Neighbor list builds = 0
Dangerous builds = 0
unfix 		equil

#Bring the impactor close to the surface
displace_atoms  impactor move 0.0 0.0 -15.0 units box

#Give the impactor a velocity toward the surface
variable 	impv equal $v*-0.01
variable 	impv equal 5*-0.01
variable 	ang equal PI*$a*10/180.0
variable 	ang equal PI*9*10/180.0
variable 	vy equal ${impv}*cos(${ang})
variable 	vy equal -0.05*cos(${ang})
variable 	vy equal -0.05*cos(1.5707963267949)
variable 	vz equal ${impv}*sin(${ang})
variable 	vz equal -0.05*sin(${ang})
variable 	vz equal -0.05*sin(1.5707963267949)
velocity 	impactor set NULL ${vy} ${vz} sum yes units box
velocity 	impactor set NULL 1.74574066942157e-16 ${vz} sum yes units box
velocity 	impactor set NULL 1.74574066942157e-16 -0.05 sum yes units box

#Guess the number of steps that will be needed
variable impsteps equal ceil(-20/${vz}*10)
variable impsteps equal ceil(-20/-0.05*10)

#Run the impact simulation
fix  		dyn all nve
fix 		frags all reax/c/species 10 10 100 species.$b.$a.out element Pt H O cutoff 2 2 .88 cutoff 3 3 .88 cutoff 2 3 .88
fix 		frags all reax/c/species 10 10 100 species.1.$a.out element Pt H O cutoff 2 2 .88 cutoff 3 3 .88 cutoff 2 3 .88
fix 		frags all reax/c/species 10 10 100 species.1.9.out element Pt H O cutoff 2 2 .88 cutoff 3 3 .88 cutoff 2 3 .88
WARNING: Resetting reneighboring criteria for fix reax/c/species (../fix_reaxc_species.cpp:103)
fix  		bonds all reax/c/bonds 100 bonds.reaxc.$b.$a.${sname}
fix  		bonds all reax/c/bonds 100 bonds.reaxc.1.$a.${sname}
fix  		bonds all reax/c/bonds 100 bonds.reaxc.1.9.${sname}
fix  		bonds all reax/c/bonds 100 bonds.reaxc.1.9.pth2o
run 		${impsteps}
run 		4000
Per MPI rank memory allocation (min/avg/max) = 668.8 | 668.8 | 668.8 Mbytes
Step TotEng PotEng KinEng Temp Press Volume c_cmi[1] c_cmi[2] c_cmi[3] 
     574   -193098.18   -193260.57    162.38748    35.421088    2933.4006    98540.745    21.957824    20.313033    17.493273 
     580   -193098.18   -193260.07    161.89152    35.312907     2932.072    98540.745    21.957641    20.314985    17.462867 
     590   -193098.18   -193259.75    161.57228    35.243271    2927.9426    98540.745    21.957336    20.318239    17.412187 
     600   -193098.18   -193260.01    161.82471    35.298334    2921.9489    98540.745    21.957031    20.321493    17.361503 
     610   -193098.18   -193260.76    162.58236    35.463597    2914.9808    98540.745    21.956726    20.324746    17.310815 
     620   -193098.18   -193262.01    163.82841    35.735394    2907.8413    98540.745    21.956421    20.327999    17.260123 
     630   -193098.18   -193263.75    165.57272    36.115875     2901.046    98540.745    21.956116    20.331253    17.209428 
     640   -193098.18   -193265.98    167.79789    36.601244    2894.8087    98540.745    21.955811    20.334506    17.158728 
     650   -193098.18   -193268.62    170.43734    37.176981    2889.0117    98540.745    21.955506     20.33776    17.108023 
     660   -193098.18    -193271.6    173.41322      37.8261    2883.1221    98540.745    21.955201    20.341013    17.057315 
     670   -193098.18   -193274.89    176.70441    38.543996     2876.208    98540.745    21.954896    20.344266    17.006601 
     680   -193098.18   -193278.54    180.35709    39.340745     2867.325    98540.745    21.954591    20.347519    16.955883 
     690   -193098.18   -193282.58    184.39943    40.222488    2856.0998    98540.745    21.954286    20.350772    16.905159 
     700   -193098.18   -193286.96    188.77375    41.176646    2843.0257    98540.745    21.953981    20.354026    16.854431 
     710   -193098.18   -193291.57    193.38987    42.183545    2829.1389    98540.745    21.953676    20.357279    16.803697 
     720   -193098.18   -193296.39    198.21089    43.235141    2815.4471    98540.745     21.95337    20.360532    16.752957 
     730   -193098.18   -193301.43    203.25461    44.335313    2802.6002    98540.745    21.953065    20.363784     16.70221 
     740   -193098.18   -193306.71    208.53205    45.486463    2790.9156    98540.745     21.95276    20.367037    16.651458 
     750   -193098.18   -193312.18    213.99723    46.678568    2780.4959    98540.745    21.952455     20.37029    16.600698 
     760   -193098.18   -193317.73    219.54656    47.889025    2771.1748    98540.745     21.95215    20.373543     16.54993 
     770   -193098.18   -193323.26    225.07594    49.095132    2762.3454    98540.745    21.951845    20.376795    16.499155 
     780   -193098.18   -193328.74    230.55827    50.290977    2752.9308    98540.745     21.95154    20.380048    16.448371 
     790   -193098.18   -193334.22    236.04007    51.486704    2741.8657    98540.745    21.951235      20.3833    16.397577 
     800   -193098.18   -193339.72    241.53178    52.684595    2728.8194    98540.745     21.95093    20.386553    16.346773 
     810   -193098.18   -193345.13    246.94905    53.866247    2714.4829    98540.745    21.950625    20.389805    16.295959 
     820   -193098.18   -193350.38    252.20226    55.012115    2700.1105    98540.745    21.950319    20.393057    16.245133 
     830   -193098.18   -193355.47    257.28709    56.121253    2686.7909    98540.745    21.950014    20.396309    16.194294 
     840   -193098.18   -193360.44    262.25637    57.205187    2675.1159    98540.745    21.949709    20.399561    16.143443 
     850   -193098.18   -193365.32    267.14016    58.270472    2665.2708    98540.745    21.949404    20.402813    16.092578 
     860   -193098.18   -193370.09    271.90372    59.309535    2657.1946    98540.745    21.949099    20.406065    16.041698 
     870   -193098.18   -193374.65    276.46578    60.304643    2650.5607    98540.745    21.948794    20.409317    15.990804 
     880   -193098.18   -193378.95    280.76155    61.241665    2644.6691    98540.745    21.948489    20.412569    15.939893 
     890   -193098.18   -193382.98    284.79697      62.1219    2638.5057    98540.745    21.948184     20.41582    15.888966 
     900   -193098.18    -193386.8    288.61736    62.955231    2631.2156    98540.745    21.947878    20.419071    15.838021 
     910   -193098.18    -193390.4    292.21211    63.739341    2622.6479    98540.745    21.947573    20.422323    15.787059 
     920   -193098.18   -193393.68      295.498    64.456083    2613.5031    98540.745    21.947268    20.425574    15.736078 
     930   -193098.18    -193396.6    298.41248    65.091809    2604.8634    98540.745    21.946963    20.428825    15.685077 
     940   -193098.18   -193399.16    300.97501    65.650765    2597.6281    98540.745    21.946658    20.432076    15.634057 
     950   -193098.18   -193401.43    303.24752    66.146462    2592.2793    98540.745    21.946353    20.435327    15.583016 
     960   -193098.18   -193403.45    305.26322     66.58614    2588.9109    98540.745    21.946048    20.438578    15.531953 
     970   -193098.18   -193405.18    307.00107    66.965212    2587.3204    98540.745    21.945743    20.441829    15.480868 
     980   -193098.18   -193406.61    308.42205    67.275167    2586.9346    98540.745    21.945438    20.445079    15.429759 
     990   -193098.18   -193407.72    309.53231    67.517345    2586.8366    98540.745    21.945133     20.44833    15.378624 
    1000   -193098.19   -193408.58    310.39693    67.705942     2586.046    98540.745    21.944828    20.451581    15.327464 
    1010   -193098.19   -193409.25    311.06669    67.852033    2584.0534    98540.745    21.944523    20.454831    15.276276 
    1020   -193098.18    -193409.7    311.51305    67.949398    2581.1477    98540.745    21.944218    20.458082    15.225058 
    1030   -193098.18   -193409.86    311.67337    67.984367    2578.2031    98540.745    21.943913    20.461332    15.173809 
    1040   -193098.18   -193409.72    311.53672     67.95456    2576.1371    98540.745    21.943608    20.464583    15.122527 
    1050   -193098.18   -193409.34    311.15332     67.87093    2575.5614    98540.745    21.943303    20.467834     15.07121 
    1060   -193098.18   -193408.78    310.59295    67.748699    2576.4792    98540.745    21.942998    20.471084    15.019854 
    1070   -193098.18   -193408.04    309.85536     67.58781    2579.2735    98540.745    21.942691    20.474334    14.968452 
    1080   -193098.18    -193407.1    308.91639    67.382995    2583.1857    98540.745     21.94238    20.477582    14.916998 
    1090   -193098.18   -193405.95    307.77024     67.13299    2587.7981    98540.745    21.942068    20.480827    14.865483 
    1100   -193098.18   -193404.66     306.4721    66.849831    2591.8633    98540.745    21.941752    20.484068    14.813896 
    1110   -193098.18   -193403.31    305.12922    66.556912    2594.4665    98540.745    21.941433    20.487303    14.762224 
    1120   -193098.18   -193401.98    303.79686    66.266287    2595.2461    98540.745     21.94111     20.49053    14.710452 
    1130   -193098.18   -193400.62    302.44203    65.970764    2595.2561    98540.745    21.940784    20.493743    14.658561 
    1140   -193098.18   -193399.22    301.03972    65.664882    2595.3635    98540.745    21.940453     20.49694    14.606529 
    1150   -193098.18   -193397.83    299.64734    65.361165    2595.9734    98540.745    21.940116    20.500115    14.554333 
    1160   -193098.18   -193396.54    298.36233     65.08087    2598.0679    98540.745    21.939771    20.503263     14.50194 
    1170   -193098.18   -193395.42    297.24071    64.836215    2601.7831    98540.745    21.939416    20.506382    14.449313 
    1180   -193098.18   -193394.48    296.29533    64.630003     2606.816    98540.745    21.939051    20.509467    14.396417 
    1190   -193098.18    -193393.7    295.52214    64.461347    2612.7353    98540.745    21.938675    20.512509    14.343208 
    1200   -193098.18   -193393.15     294.9664    64.340127    2618.6843    98540.745    21.938283      20.5155    14.289638 
    1210   -193098.18   -193392.95    294.77106    64.297517    2623.5976    98540.745    21.937874    20.518429    14.235645 
    1220   -193098.18   -193393.33    295.14771    64.379675    2626.5812    98540.745    21.937439    20.521282    14.181152 
    1230   -193098.18   -193394.51    296.33505    64.638667    2627.1896    98540.745    21.936969    20.524038    14.126051 
    1240   -193098.17   -193396.85    298.67103    65.148205    2625.5708    98540.745    21.936448     20.52667     14.07019 
    1250   -193098.17   -193400.89    302.72294    66.032036    2621.9323    98540.745    21.935854    20.529137    14.013352 
    1260   -193098.17   -193407.21    309.04095    67.410164    2617.6766    98540.745    21.935182    20.531394     13.95526 
    1270   -193098.17   -193415.26    317.09399    69.166751    2616.0989    98540.745    21.934497    20.533423    13.895673 
    1280   -193098.17   -193422.41    324.23687    70.724806    2624.3342    98540.745    21.933963    20.535293    13.834597 
    1290   -193098.21   -193424.79    326.58668    71.237363    2693.1646    98540.745    21.933768    20.537194     13.77249 
    1300   -193098.18   -193415.68    317.49968    69.255243    2734.0095    98540.745    21.933972    20.539267    13.711027 
    1310   -193098.18   -193404.23    306.04578    66.756838    2755.4499    98540.745     21.93456    20.541687    13.651632 
    1320   -193098.18   -193392.85    294.67073    64.275633    2773.8237    98540.745     21.93541    20.544724    13.595065 
    1330   -193098.18   -193386.72     288.5371    62.937722    2785.9355    98540.745    21.936195    20.548675    13.541908 
    1340   -193098.19   -193389.66    291.47441    63.578429    2787.1335    98540.745    21.936507    20.553832    13.492339 
    1350   -193098.18   -193401.61    303.42553     66.18529    2775.1737    98540.745    21.936122    20.560372    13.446107 
    1360   -193098.18   -193418.55    320.36849    69.881008    2752.0461    98540.745    21.935101    20.568247    13.402588 
    1370   -193098.17   -193434.06    335.88386    73.265329    2723.7323    98540.745    21.933652    20.577182    13.360929 
    1380   -193098.22   -193444.37    346.14608    75.503796    2668.6851    98540.745    21.931936    20.586717    13.320335 
    1390   -193098.15   -193436.69    338.53708    73.844068    2605.5812    98540.745    21.930011    20.596343    13.279368 
    1400   -193098.19   -193430.32    332.13214    72.446977    2609.9815    98540.745    21.927871    20.605733    13.236712 
    1410   -193098.21   -193427.75    329.54209    71.882018    2615.5198    98540.745    21.925476    20.614823    13.192759 
    1420   -193098.21   -193427.03    328.81324    71.723035    2619.5561    98540.745     21.92279    20.623627       13.148 
    1430   -193098.22   -193426.66    328.44301    71.642278    2622.5275    98540.745    21.919835    20.632156    13.102827 
    1440   -193098.22   -193426.75    328.53271    71.661844    2623.1667    98540.745    21.916718    20.640462    13.057509 
    1450   -193098.22   -193428.28    330.05906    71.994782    2619.1516    98540.745    21.913604    20.648655    13.012173 
    1460   -193098.22    -193431.4    333.18831    72.677355    2610.2959    98540.745     21.91066    20.656856    12.966785 
    1470   -193098.21   -193434.86    336.64436    73.431213    2598.3998    98540.745    21.908024    20.665139    12.921172 
    1480   -193098.21   -193437.32    339.11233    73.969545    2586.5995    98540.745    21.905788    20.673483    12.875068 
    1490   -193098.19   -193439.07    340.88611    74.356455    2576.9788    98540.745    21.903993    20.681785    12.828196 
    1500   -193098.19   -193442.12    343.92916    75.020225    2571.2941    98540.745    21.902633    20.689911    12.780328 
    1510   -193098.18   -193447.84    349.65764    76.269761    2573.3395    98540.745    21.901741    20.697726    12.731376 
    1520   -193098.19   -193453.37    355.17859    77.474029    2595.9553    98540.745    21.901663    20.704928    12.681674 
    1530   -193098.16    -193451.6    353.44126    77.095069     2647.745    98540.745    21.903474    20.710653     12.63262 
    1540   -193098.18   -193438.31    340.12754     74.19099    2751.0963    98540.745    21.908758    20.713367    12.586838 
    1550   -193098.14   -193415.12    316.98232    69.142392    2845.2169    98540.745    21.918392    20.711913    12.548146 
    1560   -193098.13   -193407.15    309.01186    67.403819    2871.0206    98540.745    21.932471    20.705778    12.519584 
    1570   -193098.14   -193415.88    317.73734    69.307084    2737.3325    98540.745    21.950548    20.694733    12.501731 
    1580   -193098.17   -193429.94    331.77203    72.368426    2684.6794    98540.745    21.971472    20.678844    12.492532 
    1590   -193098.17   -193446.63     348.4596    76.008437    2624.7505    98540.745    21.993487    20.659343    12.490096 
    1600   -193098.17   -193460.13    361.95942    78.953112    2579.6441    98540.745    22.015032    20.637651    12.492288 
    1610   -193098.16   -193465.65    367.49147    80.159801    2552.1426    98540.745    22.035215    20.614622    12.497175 
    1620   -193098.17   -193463.31    365.14275     79.64748    2579.9878    98540.745    22.053664    20.590341      12.5034 
    1630   -193098.16   -193453.33    355.17019    77.472198    2550.4929    98540.745    22.070397     20.56458    12.510863 
    1640   -193098.15   -193440.64    342.48329    74.704841    2509.7502    98540.745    22.086202    20.537568    12.519099 
    1650   -193098.15   -193428.54    330.39322    72.067672    2495.1064    98540.745    22.102437    20.510303    12.527248 
    1660   -193098.15   -193423.88    325.72556    71.049528    2506.9328    98540.745    22.119658    20.483585    12.535202 
    1670   -193098.16   -193429.04    330.87586    72.172949    2543.3137    98540.745    22.137435    20.457479    12.543585 
    1680   -193098.17    -193437.9    339.72627    74.103461    2562.4579    98540.745    22.154553    20.431159    12.553388 
    1690   -193098.18   -193443.79    345.60682    75.386169    2548.1584    98540.745    22.170221    20.403847    12.564858 
    1700   -193098.18   -193444.67    346.48997    75.578806    2523.8628    98540.745    22.184864    20.375593    12.577044 
    1710   -193098.17   -193440.64     342.4701    74.701964    2481.2924    98540.745    22.199304    20.346857     12.58878 
    1720   -193098.16   -193429.48    331.32661    72.271268    2460.2779    98540.745    22.214047    20.318028    12.599183 
    1730   -193098.15   -193416.99    318.84686    69.549099    2446.7677    98540.745    22.229271     20.28931     12.60818 
    1740   -193098.14    -193408.7    310.55557    67.740544    2442.4317    98540.745    22.244777    20.260601    12.616187 
    1750   -193098.15   -193407.67    309.52278    67.515266    2445.6798    98540.745    22.260293    20.231727    12.623553 
    1760   -193098.16   -193412.26    314.09767    68.513173    2457.0163    98540.745    22.275674    20.202622     12.63041 
    1770   -193098.17   -193416.43    318.25332    69.419631    2474.4065    98540.745    22.290888    20.173309     12.63675 
    1780   -193098.18   -193414.01    315.82558    68.890076    2490.4333    98540.745    22.305929    20.143843    12.642519 
    1790   -193098.19   -193408.57    310.38018    67.702288    2498.9793    98540.745    22.320765     20.11431    12.647699 
    1800   -193098.19   -193410.69    312.49659    68.163933    2499.2678    98540.745    22.335326    20.084854    12.652332 
    1810   -193098.19   -193416.82    318.62674    69.501085    2491.2817    98540.745    22.349508    20.055661     12.65652 
    1820   -193098.18    -193414.9    316.71441    69.083954    2476.7337    98540.745    22.363192    20.026936    12.660429 
    1830   -193098.17   -193404.97    306.79969    66.921285    2464.8178    98540.745    22.376234    19.998924    12.664335 
    1840   -193098.17   -193394.94    296.77192     64.73396     2462.524    98540.745    22.388463    19.971943    12.668654 
    1850   -193098.17   -193390.35    292.18762    63.733999    2470.6456    98540.745    22.399719     19.94636    12.673908 
    1860   -193098.17      -193393    294.82486    64.309254    2489.6667    98540.745    22.409869    19.922549     12.68065 
    1870   -193098.18   -193398.84    300.65968    65.581983    2545.6259    98540.745    22.418796    19.900809    12.689492 
    1880   -193098.19   -193405.43    307.24082    67.017509    2554.6964    98540.745    22.426398    19.881243     12.70114 
    1890   -193098.19   -193410.66    312.46684    68.157445    2563.7341    98540.745    22.432531    19.863987     12.71531 
    1900   -193098.19   -193420.34    322.14454    70.268411     2558.868    98540.745    22.437023    19.849088    12.731542 
    1910   -193098.22   -193438.27    340.04983    74.174038    2545.7926    98540.745    22.439923    19.836389    12.749259 
    1920   -193098.22   -193449.33    351.11133     76.58685    2539.9033    98540.745    22.441525    19.825517    12.768082 
    1930   -193098.21   -193440.78    342.57544    74.724942    2509.4133    98540.745    22.442061    19.816039    12.788272 
    1940    -193098.2   -193416.95    318.75458    69.528971    2515.5734    98540.745    22.441602     19.80756    12.810076 
    1950   -193098.19    -193393.3    295.10348    64.370026    2531.5866    98540.745    22.440173    19.799539    12.834313 
    1960   -193098.19   -193379.34    281.14885    61.326145     2549.745    98540.745    22.437874    19.791067    12.861945 
    1970    -193098.2   -193382.01    283.80437    61.905386    2566.1997    98540.745    22.434911    19.781109    12.893641 
    1980   -193098.22   -193398.31    300.08855    65.457405     2577.181    98540.745    22.431552    19.769223    12.929527 
    1990   -193098.24   -193412.43    314.19318    68.534006    2577.3183    98540.745    22.428056     19.75594    12.969075 
    2000   -193098.23      -193417    318.77084    69.532516    2562.5266    98540.745    22.424586    19.742251     13.01126 
    2010   -193098.23   -193423.89    325.66692    71.036738    2535.3313    98540.745    22.421212    19.728912    13.054822 
    2020   -193098.24    -193431.9    333.66642    72.781645    2500.7542    98540.745    22.417944    19.716274     13.09847 
    2030   -193098.22   -193424.87    326.65487    71.252237    2464.2678    98540.745     22.41477    19.704421    13.141049 
    2040   -193098.19   -193404.34    306.14232    66.777895    2434.3015    98540.745    22.411684    19.693241    13.181739 
    2050   -193098.18   -193383.41    285.22629    62.215547    2415.3327    98540.745    22.408688    19.682516    13.220166 
    2060   -193098.18   -193370.33    272.15037    59.363336    2407.0077    98540.745    22.405793    19.672092    13.256298 
    2070   -193098.18   -193366.78    268.60371    58.589712    2406.4573    98540.745    22.403022    19.661925    13.290265 
    2080   -193098.18   -193371.91    273.72522    59.706853     2413.906    98540.745    22.400415    19.651997    13.322254 
    2090   -193098.19   -193383.01    284.82051    62.127035     2430.363    98540.745    22.397996    19.642255    13.352457 
    2100    -193098.2   -193392.41    294.20939    64.175002       2485.2    98540.745    22.395722    19.632564    13.381165 
    2110   -193098.22   -193394.19    295.97681    64.560523    2488.3385    98540.745    22.393465    19.622741     13.40902 
    2120   -193098.22   -193392.11    293.89531    64.106492    2490.5449    98540.745     22.39119    19.612689    13.436069 
    2130   -193098.22   -193394.42    296.19353    64.607796    2484.4079    98540.745    22.389104    19.602531    13.462532 
    2140   -193098.22    -193392.3    294.08034    64.146854    2472.9695    98540.745    22.387379     19.59248    13.488829 
    2150    -193098.2   -193381.15    282.94427    61.717775    2460.3039    98540.745    22.385992    19.582776    13.515491 
    2160   -193098.19    -193371.4     273.2018    59.592681     2449.038    98540.745    22.384825    19.573565    13.543027 
    2170   -193098.19    -193372.2    274.00751    59.768427    2437.5736    98540.745    22.383687    19.564809    13.571753 
    2180    -193098.2   -193383.91    285.70806    62.320633    2425.6818    98540.745    22.382348    19.556311    13.601655 
    2190    -193098.2   -193399.84    301.64016    65.795854    2421.6615    98540.745    22.380667    19.547801    13.632363 
    2200   -193098.22   -193409.25    311.03452    67.845017    2386.3215    98540.745    22.378649    19.539036    13.663248 
    2210   -193098.21   -193407.58     309.3705     67.48205    2380.8768    98540.745    22.376393    19.529882    13.693019 
    2220    -193098.2   -193402.29    304.08868    66.329942    2372.4663    98540.745    22.374067    19.520446    13.721069 
    2230    -193098.2    -193396.8    298.60794    65.134444    2356.1989    98540.745    22.371781    19.510934    13.747401 
    2240   -193098.19   -193392.05    293.86194    64.099214     2335.821    98540.745    22.369521    19.501446     13.77229 
    2250   -193098.19   -193389.73    291.54373     63.59355    2316.9895    98540.745    22.367231    19.491981    13.795955 
    2260   -193098.19   -193391.94    293.75097    64.075008    2303.5435    98540.745    22.364869     19.48252    13.818471 
    2270   -193098.19   -193399.05    300.85945     65.62556     2297.675    98540.745    22.362411    19.473053     13.83984 
    2280    -193098.2   -193408.64    310.44193    67.715757    2299.9407    98540.745    22.359855    19.463583    13.860094 
    2290   -193098.21   -193416.04    317.82823    69.326908    2308.4189    98540.745    22.357239    19.454119    13.879392 
    2300   -193098.22   -193417.92    319.70799    69.736934     2318.522    98540.745     22.35465    19.444653    13.898086 
    2310   -193098.22   -193415.94    317.72442    69.304264    2325.7614    98540.745    22.352238    19.435138    13.916725 
    2320   -193098.22   -193413.55     315.3297    68.781911    2326.3823    98540.745    22.350223    19.425458    13.936051 
    2330   -193098.21   -193411.44    313.23004     68.32392    2318.2496    98540.745    22.348895    19.415408    13.956896 
    2340   -193098.21   -193410.88    312.66903    68.201548    2300.4951    98540.745    22.348545    19.404717    13.979904 
    2350    -193098.2   -193414.48    316.28096    68.989407    2277.0817    98540.745    22.349333    19.393162    14.005183 
    2360    -193098.2   -193422.06    323.85654    70.641844    2253.6939    98540.745    22.351203     19.38069     14.03221 
    2370    -193098.2   -193431.04    332.84394    72.602239    2235.2697    98540.745    22.353916    19.367442    14.060108 
    2380    -193098.2   -193438.98    340.78141    74.333616    2224.4157    98540.745    22.357152    19.353671    14.088004 
    2390   -193098.21   -193443.73    345.51988    75.367204    2221.7224    98540.745    22.360606    19.339643    14.115209 
    2400   -193098.21   -193444.07    345.86185    75.441796    2223.9026    98540.745    22.364037    19.325575    14.141248 
    2410   -193098.21   -193442.65    344.43276    75.130074    2224.8239    98540.745    22.367298     19.31159    14.165837 
    2420   -193098.21   -193445.23    347.01831    75.694052    2218.7174    98540.745    22.370352     19.29769    14.188818 
    2430   -193098.21   -193453.61    355.39978    77.522277     2203.543    98540.745    22.373265     19.28378    14.210072 
    2440   -193098.21   -193462.48    364.26963    79.457031    2186.7075    98540.745    22.376112    19.269782    14.229533 
    2450   -193098.21   -193464.31    366.09995    79.856273    2180.5157    98540.745    22.378777    19.255833    14.247437 
    2460   -193098.21   -193454.73    356.51939    77.766494     2187.821    98540.745     22.38083    19.242387    14.264503 
    2470   -193098.21   -193434.09    335.87318    73.262998    2204.8508    98540.745    22.381458    19.230163    14.281925 
    2480    -193098.2   -193414.87     316.6687    69.073983    2227.8582    98540.745    22.379405    19.220056    14.301235 
    2490   -193098.21   -193416.35    318.13898    69.394691    2334.5718    98540.745    22.373614    19.212619    14.323932 
    2500   -193098.23    -193438.8    340.56367     74.28612    2316.2602    98540.745    22.364571     19.20718    14.351464 
    2510   -193098.24   -193455.42    357.18201    77.911029    2221.7483    98540.745    22.353721    19.203237    14.382621 
    2520   -193098.23   -193458.75    360.51856    78.638819     2203.618    98540.745    22.342587    19.200733    14.415093 
    2530   -193098.22   -193457.64    359.41817    78.398797    2181.7647    98540.745    22.332178    19.199322    14.448058 
    2540   -193098.21   -193454.12     355.9028    77.631999    2160.7317    98540.745    22.322787    19.198732    14.480921 
    2550   -193098.21   -193447.82    349.61724    76.260949    2137.6601    98540.745    22.314153    19.198773    14.513221 
    2560    -193098.2   -193439.83    341.63313    74.519399    2115.3577    98540.745     22.30581    19.199318    14.544628 
    2570   -193098.19   -193432.91    334.71268    73.009863    2100.0696    98540.745    22.297425    19.200219    14.574853 
    2580   -193098.19   -193429.46    331.27046    72.259021    2095.5358    98540.745    22.288845    19.201313    14.603665 
    2590    -193098.2   -193429.54    331.34158    72.274534    2101.3576    98540.745    22.280044    19.202448    14.630973 
    2600   -193098.21   -193430.39    332.18928    72.459441     2114.327    98540.745     22.27107    19.203489     14.65685 
    2610   -193098.21   -193428.54    330.32393    72.052557    2129.7625    98540.745    22.261998    19.204302    14.681516 
    2620   -193098.22   -193423.61    325.39098    70.976548    2142.0905    98540.745    22.252897    19.204742    14.705308 
    2630   -193098.22   -193418.96    320.73862    69.961743    2147.7304    98540.745    22.243799    19.204665    14.728639 
    2640   -193098.22    -193415.7     317.4855    69.252149      2145.27    98540.745    22.234678     19.20395     14.75195 
    2650   -193098.21   -193411.29     313.0769    68.290515    2135.5402    98540.745    22.225452    19.202526    14.775634 
    2660    -193098.2   -193405.22    307.02097    66.969553    2121.7601    98540.745       22.216    19.200408    14.799927 
    2670    -193098.2   -193400.01    301.81228    65.833398    2108.6522    98540.745    22.206211    19.197692    14.824845 
    2680    -193098.2   -193397.85    299.65306    65.362413    2099.6315    98540.745    22.196027    19.194532    14.850179 
    2690    -193098.2   -193399.02    300.81871    65.616673    2095.7661    98540.745    22.185459    19.191091    14.875582 
    2700    -193098.2   -193401.87    303.66349    66.237196    2097.6765    98540.745    22.174577    19.187513    14.900655 
    2710   -193098.21   -193403.58    305.36471    66.608278    2103.9236    98540.745    22.163469    19.183912    14.925015 
    2720   -193098.22   -193402.28    304.06906    66.325662    2110.3335    98540.745    22.152214    19.180361    14.948327 
    2730   -193098.22   -193400.13     301.9184    65.856546    2112.4186    98540.745    22.140865      19.1769    14.970321 
    2740   -193098.22   -193400.84    302.61821    66.009192    2110.1795    98540.745    22.129479    19.173537    14.990841 
    2750   -193098.22   -193402.33    304.11321    66.335292    2106.3599    98540.745    22.118191    19.170245    15.009949 
    2760   -193098.21   -193398.47    300.25891    65.494567    2103.8115    98540.745    22.107269     19.16698    15.028016 
    2770   -193098.21   -193386.94    288.73195    62.980224    2105.1233    98540.745    22.097085    19.163709    15.045724 
    2780    -193098.2   -193371.06    272.85377    59.516766    2110.7224    98540.745     22.08808    19.160443    15.064054 
    2790    -193098.2    -193358.5    260.30113    56.778697    2118.6285    98540.745    22.080683    19.157278    15.084177 
    2800    -193098.2   -193357.39    259.18493    56.535222    2124.5511    98540.745    22.075143    19.154388    15.107052 
    2810   -193098.21   -193367.07    268.86107    58.645849    2126.4397    98540.745    22.071364    19.151941    15.132893 
    2820   -193098.22   -193377.43    279.20665    60.902499    2123.8208    98540.745    22.068946    19.149987    15.161053 
    2830   -193098.22   -193380.98    282.76339     61.67832    2116.4258    98540.745    22.067394    19.148438    15.190468 
    2840   -193098.22   -193379.46    281.24039    61.346114    2104.7235    98540.745    22.066287    19.147128    15.220147 
    2850   -193098.21   -193376.56    278.34845    60.715303    2090.1926    98540.745    22.065324    19.145885    15.249367 
    2860   -193098.21   -193371.67    273.46693    59.650513    2074.5301    98540.745    22.064314     19.14457     15.27768 
    2870    -193098.2   -193364.17    265.97244    58.015763    2059.3629    98540.745    22.063163    19.143099    15.304914 
    2880   -193098.19   -193356.54    258.35274      56.3537    2046.8567    98540.745    22.061857    19.141457    15.331107 
    2890   -193098.19   -193351.99    253.80295    55.361269    2039.3436    98540.745    22.060413    19.139665    15.356379 
    2900   -193098.19   -193351.92    253.72825    55.344974    2038.0391    98540.745    22.058855    19.137751    15.380849 
    2910    -193098.2   -193355.19    256.99065     56.05659    2042.5892    98540.745    22.057199    19.135743    15.404606 
    2920    -193098.2   -193358.63    260.42239    56.805147    2050.6131    98540.745    22.055458    19.133664    15.427708 
    2930   -193098.21   -193359.46    261.25607    56.986994    2057.7501    98540.745    22.053638    19.131534    15.450187 
    2940   -193098.21    -193358.9    260.68682    56.862826    2059.7518    98540.745    22.051741    19.129371    15.472055 
    2950   -193098.21   -193360.63    262.41668    57.240154    2054.7372    98540.745    22.049766    19.127193    15.493306 
    2960   -193098.21   -193364.23    266.02399    58.027006    2042.8405    98540.745     22.04771     19.12502     15.51391 
    2970    -193098.2   -193366.11    267.91178    58.438785    2026.3083    98540.745    22.045562    19.122878    15.533818 
    2980   -193098.19   -193366.08    267.88259    58.432418    2009.4929    98540.745    22.043303    19.120799    15.552948 
    2990   -193098.19   -193367.51     269.3247     58.74698    1996.3805    98540.745    22.040907    19.118826    15.571181 
    3000   -193098.19    -193373.6    275.40551    60.073369     1989.426    98540.745    22.038334    19.117008    15.588366 
    3010    -193098.2   -193384.61    286.41832    62.475559    1990.9905    98540.745    22.035567     19.11537    15.604372 
    3020   -193098.21   -193396.85    298.64811    65.143208    2002.7734    98540.745    22.032676    19.113856    15.619214 
    3030   -193098.22   -193404.28    306.06279    66.760548    2021.3887    98540.745    22.029906     19.11228     15.63316 
    3040   -193098.23   -193403.47    305.24665    66.582525    2039.3221    98540.745    22.027732    19.110335    15.646742 
    3050   -193098.23   -193397.85    299.62649    65.356617    2051.5643    98540.745     22.02688    19.107593    15.660772 
    3060   -193098.22   -193396.19    297.96541    64.994291     2054.724    98540.745    22.028204    19.103552    15.676224 
    3070   -193098.22   -193403.54    305.31199    66.596779    2046.9049    98540.745    22.032246    19.097831    15.693781 
    3080   -193098.23    -193412.9    314.67941    68.640066    2032.1284    98540.745    22.038667     19.09036    15.713424 
    3090   -193098.22   -193413.96    315.74132    68.871696    2052.9439    98540.745    22.046151    19.081266    15.734838 
    3100   -193098.21   -193410.95    312.74105    68.217258    2020.9136    98540.745    22.053054    19.070672    15.758415 
    3110   -193098.21   -193414.41    316.20618    68.973096    1986.6376    98540.745    22.058163    19.058212    15.783953 
    3120   -193098.21   -193426.57    328.35602    71.623303    1980.8475    98540.745    22.061111    19.043659    15.810744 
    3130   -193098.22   -193438.63    340.40841    74.252254     1980.735    98540.745    22.062359    19.027443    15.838154 
    3140   -193098.23    -193442.2     343.9694    75.029002    1981.5015    98540.745    22.062596    19.010338    15.865588 
    3150   -193098.23   -193437.22    338.99058    73.942987    1981.1071    98540.745     22.06228    18.993182    15.892697 
    3160   -193098.22   -193429.99    331.76552    72.367007    1980.2102    98540.745    22.061566    18.976687    15.919421 
    3170   -193098.22   -193424.57    326.35418    71.186648    1974.9346    98540.745    22.060409    18.961246    15.945981 
    3180   -193098.21   -193419.87    321.66051    70.162832    1961.8926    98540.745    22.058706    18.946855    15.972754 
    3190    -193098.2   -193415.24    317.03847     69.15464    1944.1998    98540.745    22.056412     18.93329    15.999997 
    3200    -193098.2   -193412.23    314.02699    68.497754    1927.8303    98540.745    22.053587    18.920274    16.027713 
    3210    -193098.2   -193412.13    313.93556    68.477812    1917.1164    98540.745    22.050355    18.907564    16.055689 
    3220    -193098.2   -193414.64    316.44191    69.024515    1914.1198    98540.745    22.046862    18.894986    16.083611 
    3230   -193098.21   -193417.63    319.42082    69.674294    1918.5205    98540.745    22.043246    18.882438    16.111156 
    3240   -193098.21   -193418.06    319.85333    69.768638    1926.8121    98540.745     22.03962    18.869878    16.138054 
    3250   -193098.21   -193415.12    316.90679    69.125916    1934.2274    98540.745    22.036065     18.85731    16.164111 
    3260   -193098.21   -193412.16    313.94269    68.479366    1936.7691    98540.745     22.03263    18.844762    16.189217 
    3270   -193098.21   -193411.88    313.66913    68.419696    1933.0843    98540.745    22.029339    18.832271    16.213333 
    3280   -193098.21   -193411.71    313.50539    68.383981    1923.4047    98540.745    22.026203    18.819868    16.236462 
    3290    -193098.2   -193408.87    310.67357    67.766284    1911.3154    98540.745    22.023224    18.807585    16.258619 
    3300   -193098.19   -193404.89    306.69944     66.89942    1901.3015    98540.745    22.020404     18.79545    16.279814 
    3310   -193098.19   -193403.12    304.92953    66.513353    1897.1884    98540.745    22.017746    18.783484    16.300043 
    3320   -193098.19    -193405.5    307.30306    67.031084    1900.2155    98540.745    22.015253    18.771708    16.319288 
    3330    -193098.2   -193411.43    313.23371     68.32472    1910.1315    98540.745    22.012933    18.760141    16.337518 
    3340   -193098.21   -193418.17    319.96692    69.793414    1924.7783    98540.745     22.01079    18.748791    16.354693 
    3350   -193098.21   -193423.07    324.85763     70.86021    1939.8677    98540.745    22.008824    18.737642    16.370779 
    3360   -193098.21   -193427.27    329.06038    71.776944    1950.5665    98540.745    22.007027    18.726615     16.38575 
    3370   -193098.22    -193434.7     336.4868    73.396846    1954.6952    98540.745    22.005381    18.715533      16.3996 
    3380   -193098.22   -193444.02    345.80203    75.428747    1956.3396    98540.745    22.003831    18.704152    16.412403 
    3390   -193098.22   -193447.54    349.31786    76.195646     1962.482    98540.745    22.002204    18.692364    16.424483 
    3400   -193098.22   -193440.58    342.36261    74.678518    1974.8083    98540.745    22.000149    18.680375     16.43646 
    3410   -193098.22   -193424.83    326.61035    71.242524    1991.8838    98540.745    21.997108    18.668794    16.449132 
    3420    -193098.2   -193401.34    303.14205    66.123456    2090.3664    98540.745    21.992467     18.65858    16.463913 
    3430    -193098.2   -193397.05    298.85214    65.187711    2089.3915    98540.745    21.985776    18.650574    16.482626 
    3440   -193098.22   -193415.14    316.92491    69.129871    2090.1105    98540.745    21.976491     18.64507    16.505025 
    3450   -193098.23   -193438.85    340.62579     74.29967    2086.0295    98540.745    21.964882    18.641378    16.530394 
    3460   -193098.23   -193454.61    356.37872    77.735811    2078.4994    98540.745    21.951699    18.638605    16.557836 
    3470   -193098.21   -193462.15    363.94026    79.385184    2107.8503    98540.745     21.93776    18.636209    16.586601 
    3480   -193098.22   -193457.86    359.64698    78.448705    1986.3042    98540.745    21.923762    18.633941    16.615961 
    3490   -193098.21   -193448.49    350.27549    76.404531    1987.3386    98540.745    21.910133    18.631771    16.644059 
    3500   -193098.21   -193438.35    340.14476    74.194744    1982.8104    98540.745    21.896876    18.629547    16.670983 
    3510    -193098.2   -193427.74    329.53761    71.881039      1978.45    98540.745    21.883915    18.626996    16.697043 
    3520    -193098.2   -193419.63    321.43825    70.114352    1978.4486    98540.745    21.871203    18.623822    16.722521 
    3530    -193098.2   -193416.22    318.02069    69.368889    1984.1844    98540.745    21.858691    18.619808    16.747633 
    3540    -193098.2   -193417.02    318.81899     69.54302     1995.111    98540.745    21.846308    18.614845    16.772499 
    3550   -193098.21   -193418.93    320.71704    69.957034    2008.7507    98540.745     21.83398    18.608946    16.797107 
    3560   -193098.21    -193418.5     320.2841    69.862599    2021.2737    98540.745    21.821655    18.602221    16.821331 
    3570   -193098.22   -193416.01    317.79835     69.32039    2028.5418    98540.745    21.809323    18.594841    16.844965 
    3580   -193098.21   -193415.04    316.82963    69.109087    2029.5936    98540.745    21.797022    18.586993    16.867776 
    3590   -193098.21   -193415.94    317.72875    69.305208    2025.1416    98540.745    21.784814     18.57885    16.889544 
    3600   -193098.21   -193415.51    317.30964     69.21379    2017.0344    98540.745    21.772766    18.570561    16.910084 
    3610    -193098.2   -193413.77    315.56823    68.833942     2008.838    98540.745    21.760912     18.56224    16.929231 
    3620   -193098.19   -193414.79    316.59994    69.058984    2002.7161    98540.745    21.749224    18.553969    16.946818 
    3630   -193098.19   -193422.73    324.53383     70.78958    2000.1686    98540.745    21.737596    18.545776    16.962648 
    3640    -193098.2   -193436.51    338.30193    73.792775     2009.394    98540.745    21.725964    18.537593    16.976603 
    3650   -193098.23   -193446.55    348.32734    75.979586    2042.3996    98540.745    21.714592     18.52931    16.988969 
    3660   -193098.22   -193431.49    333.27108    72.695411    2161.8218    98540.745    21.704007    18.520927    17.001361 
    3670   -193098.23   -193407.48    309.24803    67.455334    2195.0335    98540.745    21.694722    18.512573    17.015912 
    3680   -193098.23   -193386.08    287.85264    62.788424    2217.8157    98540.745    21.687413    18.504546    17.033317 
    3690   -193098.22   -193378.65    280.42126    61.167439    2223.4152    98540.745    21.682536    18.497304    17.054134 
    3700   -193098.22   -193387.19    288.97043    63.032245    2211.3442    98540.745    21.680235     18.49116    17.078612 
    3710   -193098.22   -193405.61    307.39198    67.050481    2186.7422    98540.745    21.680292    18.486003    17.106643 
    3720   -193098.21   -193427.49    329.27294    71.823308    2199.4234    98540.745    21.682166    18.481429    17.137782 
    3730   -193098.21   -193434.27    336.06645    73.305156    2048.7051    98540.745    21.685221    18.477076    17.170909 
    3740    -193098.2   -193429.71    331.50413     72.30999    2033.7462    98540.745    21.689089    18.472764    17.203566 
    3750    -193098.2   -193422.06    323.85836    70.642243    2039.9905    98540.745     21.69314    18.468431     17.23485 
    3760    -193098.2   -193415.61    317.40346    69.234254    2057.4144    98540.745    21.697075     18.46413    17.264393 
    3770   -193098.21   -193409.97    311.76365     68.00406    2072.9376    98540.745    21.700916    18.459946    17.292266 
    3780   -193098.21   -193405.14    306.92476    66.948567    2081.0988    98540.745     21.70479    18.455924    17.318662 
    3790   -193098.21   -193403.89     305.6779    66.676594    2081.1382    98540.745    21.708802    18.452079     17.34372 
    3800   -193098.21   -193405.92     307.7137    67.120656      2074.05    98540.745    21.713017     18.44842    17.367511 
    3810    -193098.2   -193407.21    309.00531    67.402391    2062.7292    98540.745    21.717465    18.444942    17.390067 
    3820    -193098.2   -193406.31    308.10848    67.206769    2052.5206    98540.745    21.722137    18.441614    17.411429 
    3830   -193098.19   -193405.22    307.02547    66.970534    2048.7565    98540.745    21.726983    18.438355    17.431703 
    3840   -193098.19   -193405.91    307.71383    67.120684    2053.7746    98540.745    21.731915    18.435009    17.451103 
    3850    -193098.2   -193408.31    310.11166    67.643715    2067.6792    98540.745    21.736836     18.43135    17.469965 
    3860    -193098.2    -193410.5    312.29915    68.120867    2087.5994    98540.745    21.741671    18.427089    17.488743 
    3870   -193098.21   -193410.37    312.15766    68.090003    2108.3905    98540.745    21.746405      18.4219    17.507955 
    3880   -193098.21   -193408.63    310.42206    67.711422    2123.2417    98540.745    21.751115    18.415477    17.528065 
    3890   -193098.21   -193409.84    311.62554    67.973933    2127.9179    98540.745    21.755955     18.40763    17.549291 
    3900   -193098.21   -193416.25    318.03732    69.372516    2121.0813    98540.745    21.761077    18.398361    17.571488 
    3910   -193098.21    -193423.2    324.98355    70.887677    2105.2989    98540.745    21.766544    18.387854    17.594192 
    3920    -193098.2   -193425.67    327.47197    71.430467    2086.1568    98540.745    21.772303    18.376412    17.616804 
    3930    -193098.2   -193424.39     326.1991     71.15282    2070.1878    98540.745    21.778223    18.364363    17.638756 
    3940   -193098.19   -193423.38    325.18965    70.932633    2062.8339    98540.745    21.784149    18.352019    17.659595 
    3950   -193098.19   -193426.11    327.91916    71.528011    2065.5568    98540.745    21.789961    18.339634    17.679011 
    3960   -193098.19   -193433.91    335.71796     73.22914    2075.3234    98540.745    21.795641    18.327375    17.696817 
    3970   -193098.21   -193445.45    347.24914    75.744402    2087.9946    98540.745    21.801315    18.315285     17.71291 
    3980   -193098.22    -193454.7    356.47552    77.756925    2108.3406    98540.745    21.807117    18.303388    17.727335 
    3990   -193098.27   -193452.86    354.58851    77.345316     2195.959    98540.745    21.812829    18.291945    17.740545 
    4000   -193098.23   -193428.96    330.72646    72.140361    2245.8839    98540.745    21.817933    18.281298    17.754641 
    4010   -193098.23   -193402.45    304.22606    66.359907    2257.4916    98540.745     21.82147    18.272229    17.771394 
    4020   -193098.21   -193387.79    289.58182    63.165605    2256.4434    98540.745    21.822207     18.26595    17.791689 
    4030   -193098.21   -193398.05    299.83674     65.40248    2240.2513    98540.745    21.819617    18.263044    17.815991 
    4040   -193098.21   -193420.32    322.10351    70.259463    2223.3702    98540.745    21.814307    18.262791     17.84383 
    4050   -193098.23   -193439.53    341.30726    74.448318    2128.5128    98540.745    21.807397    18.263783    17.874417 
    4060   -193098.21   -193440.08    341.86932    74.570919    2108.4189    98540.745    21.799473    18.265032    17.905676 
    4070   -193098.21   -193435.16     336.9522    73.498363    2115.0254    98540.745    21.790936    18.266026    17.935954 
    4080   -193098.21   -193428.99    330.78228    72.152536     2130.225    98540.745    21.782114    18.266685    17.964823 
    4090   -193098.21   -193422.71    324.49663    70.781466    2141.1572    98540.745    21.773079    18.267271    17.992179 
    4100   -193098.21   -193418.17    319.95872    69.791625    2145.6637    98540.745    21.763863    18.268019    18.018011 
    4110   -193098.21   -193417.29    319.07886    69.599703    2145.4125    98540.745    21.754555    18.269011    18.042329 
    4120   -193098.21   -193416.77    318.55489    69.485412    2142.4237    98540.745    21.745301    18.270207    18.065246 
    4130   -193098.21   -193412.25    314.04757    68.502244    2139.6283    98540.745    21.736305    18.271488    18.087019 
    4140    -193098.2   -193403.95    305.74549    66.691336    2140.1975    98540.745    21.727821    18.272702     18.10806 
    4150    -193098.2   -193395.15     296.9542    64.773719    2146.2929    98540.745    21.720124    18.273715    18.128915 
    4160    -193098.2   -193389.35      291.154    63.508538    2157.2845    98540.745    21.713476    18.274451    18.150207 
    4170    -193098.2   -193388.47    290.27054    63.315833    2170.7828    98540.745    21.708065    18.274936    18.172496 
    4180   -193098.21   -193391.22    293.01403    63.914263     2184.142    98540.745    21.703925    18.275293    18.196085 
    4190   -193098.21   -193393.69    295.47934    64.452012    2193.7971    98540.745    21.700931    18.275669    18.220903 
    4200   -193098.22   -193394.02    295.79915    64.521772    2196.3999    98540.745    21.698832    18.276163    18.246566 
    4210   -193098.22   -193394.13    295.91706    64.547491    2191.6316    98540.745    21.697343    18.276788    18.272549 
    4220   -193098.21   -193394.12     295.9029    64.544403    2180.9442    98540.745    21.696195    18.277486    18.298341 
    4230   -193098.21   -193390.85    292.64582    63.833946    2167.5004    98540.745    21.695173    18.278162    18.323529 
    4240    -193098.2   -193384.03     285.8319    62.347645    2155.5468    98540.745    21.694121    18.278722    18.347826 
    4250   -193098.19   -193377.19     279.0023    60.857926    2149.1217    98540.745    21.692943    18.279092    18.371067 
    4260   -193098.19    -193373.9    275.71446    60.140758    2149.7998    98540.745     21.69159    18.279236    18.393184 
    4270   -193098.19   -193375.33    277.13729    60.451117    2157.4585    98540.745    21.690045    18.279153    18.414156 
    4280    -193098.2   -193379.98    281.78422    61.464738    2170.4833    98540.745    21.688298     18.27887    18.433963 
    4290   -193098.21   -193384.91    286.70397    62.537868    2185.1446    98540.745    21.686333    18.278435    18.452548 
    4300   -193098.21   -193388.87    290.66315    63.401472    2196.2256    98540.745    21.684118     18.27792    18.469801 
    4310   -193098.21   -193394.69    296.47495    64.669181    2201.2199    98540.745    21.681621    18.277393    18.485582 
    4320   -193098.22   -193403.91    305.69057    66.679357    2203.0376    98540.745    21.678882    18.276845     18.49984 
    4330   -193098.22   -193410.88    312.66399    68.200448    2204.6736    98540.745    21.676139    18.276082    18.512789 
    4340   -193098.22   -193408.73    310.51472    67.731635    2208.0012    98540.745    21.673887    18.274693    18.524962 
    4350   -193098.21   -193397.64    299.43347    65.314515    2215.6798    98540.745    21.672859    18.272028    18.537218 
    4360   -193098.19   -193380.77    282.57591    61.637426    2313.5068    98540.745    21.673794    18.267347    18.550911 
    4370    -193098.2   -193378.38    280.17336    61.113365    2307.7474    98540.745     21.67684    18.260462    18.568038 
    4380   -193098.21   -193390.15    291.93693    63.679318    2309.5984    98540.745    21.681665    18.251286     18.58836 
    4390   -193098.22   -193403.46    305.24093     66.58128    2310.7825    98540.745    21.687215    18.240093    18.611318 
    4400   -193098.23   -193412.91    314.68628    68.641563    2312.2161    98540.745    21.692417    18.227152    18.636444 
    4410   -193098.22   -193418.88    320.65648    69.943825    2313.9456    98540.745    21.696626     18.21282    18.663424 
    4420   -193098.24    -193426.3    328.05482    71.557603    2353.2965    98540.745    21.699699    18.197693    18.692038 
    4430   -193098.22   -193423.65    325.42963    70.984978    2225.1018    98540.745    21.701822    18.182412    18.721736 
    4440   -193098.21   -193414.96    316.75381    69.092548    2210.5996    98540.745    21.703053    18.167576    18.751082 
    4450    -193098.2   -193403.43    305.23248    66.579435    2197.9369    98540.745    21.703584    18.153636    18.780116 
    4460   -193098.19   -193393.83    295.63166    64.485237    2188.6234    98540.745    21.703508     18.14069    18.808969 
    4470   -193098.19   -193389.28     291.0897    63.494513    2182.3946    98540.745    21.702915    18.128549    18.837755 
    4480   -193098.19   -193389.61    291.41299    63.565032    2180.4437    98540.745    21.701931    18.116934    18.866465 
    4490    -193098.2   -193392.14    293.93865    64.115947    2183.4654    98540.745    21.700699    18.105603    18.894968 
    4500   -193098.21   -193393.15    294.93981    64.334327     2189.872    98540.745    21.699349    18.094386    18.923071 
    4510   -193098.21    -193390.8    292.58472    63.820618    2195.8693    98540.745    21.697982    18.083177    18.950581 
    4520   -193098.21   -193387.77    289.55559    63.159882    2197.3575    98540.745    21.696666    18.071919     18.97734 
    4530   -193098.21   -193387.36    289.15223    63.071898    2192.7339    98540.745    21.695444    18.060592    19.003242 
    4540   -193098.21   -193387.73    289.52898    63.154078    2182.5076    98540.745    21.694332      18.0492    19.028226 
    4550    -193098.2   -193385.67     287.4695    62.704851    2169.1887    98540.745    21.693338    18.037761    19.052268 
    4560   -193098.19   -193382.04    283.84369    61.913964    2157.3036    98540.745    21.692458    18.026298    19.075365 
    4570   -193098.19   -193380.12    281.92848    61.496205    2150.4843    98540.745    21.691687    18.014838    19.097516 
    4574   -193098.19    -193380.4    282.21432    61.558555    2149.6026    98540.745    21.691408     18.01026    19.106113 
Loop time of 689.914 on 1 procs for 4000 steps with 1539 atoms

Performance: 0.050 ns/day, 479.107 hours/ns, 5.798 timesteps/s
99.7% CPU use with 1 MPI tasks x no OpenMP threads

MPI task timing breakdown:
Section |  min time  |  avg time  |  max time  |%varavg| %total
---------------------------------------------------------------
Pair    | 638.11     | 638.11     | 638.11     |   0.0 | 92.49
Bond    | 0.0022528  | 0.0022528  | 0.0022528  |   0.0 |  0.00
Neigh   | 1.0414     | 1.0414     | 1.0414     |   0.0 |  0.15
Comm    | 0.21917    | 0.21917    | 0.21917    |   0.0 |  0.03
Output  | 0.26384    | 0.26384    | 0.26384    |   0.0 |  0.04
Modify  | 50.246     | 50.246     | 50.246     |   0.0 |  7.28
Other   |            | 0.03263    |            |       |  0.00

Nlocal:    1539 ave 1539 max 1539 min
Histogram: 1 0 0 0 0 0 0 0 0 0
Nghost:    5964 ave 5964 max 5964 min
Histogram: 1 0 0 0 0 0 0 0 0 0
Neighs:    312110 ave 312110 max 312110 min
Histogram: 1 0 0 0 0 0 0 0 0 0

Total # of neighbors = 312110
Ave neighs/atom = 202.801
Ave special neighs/atom = 0
Neighbor list builds = 40
Dangerous builds not checked

#Exit the simulation
unfix		qeq
unfix		dyn
unfix		frags
unfix		bonds
clear



Please see the log.cite file for references relevant to this simulation

Total wall time: 0:13:26
