/groups/wag/pkozlows/miniconda3/envs/pyscf/lib/python3.11/site-packages/pyscf/dft/libxc.py:771: UserWarning: Since PySCF-2.3, B3LYP (and B3P86) are changed to the VWN-RPA variant, corresponding to the original definition by Stephens et al. (issue 1480) and the same as the B3LYP functional in Gaussian. To restore the VWN5 definition, you can put the setting "B3LYP_WITH_VWN5 = True" in pyscf_conf.py
  warnings.warn('Since PySCF-2.3, B3LYP (and B3P86) are changed to the VWN-RPA variant, '
/central/home/pkozlows/ch121b/gan/dft/g0w0/pbe/dzvp/333/2/dz3g.py:8: UserWarning: Use ase.build.bulk() instead
  ase_cell = bulk('GaN', 'wurtzite', a=3.19, c=5.19)
#INFO: **** input file is /central/home/pkozlows/ch121b/gan/dft/g0w0/pbe/dzvp/333/2/dz3g.py ****
import os
import numpy as np
import pyscf.pbc.tools.pyscf_ase as pyscf_ase
from ase.lattice import bulk
from pyscf.pbc import gto, scf, dft
from pyscf.pbc.gw import krgw_ac

ase_cell = bulk('GaN', 'wurtzite', a=3.19, c=5.19)

cell = gto.Cell()
cell.atom = pyscf_ase.ase_atoms_to_pyscf(ase_cell)
cell.a = np.array(ase_cell.cell)
cell.exp_to_discard = 0.1

cell.basis = 'gth-dzvp'
cell.pseudo = 'gth-pade'
cell.verbose = 5
cell.rcut = 93
cell.build()

kpts = cell.make_kpts([3,3,3])
kmf = dft.KRKS(cell).density_fit()
kmf.kpts = kpts
kmf.xc = 'pbe'
kmf.kernel()

# Default is AC frequency integration
mygw = krgw_ac.KRGWAC(kmf)
mygw.kernel()

# # Extracting HOMO and LUMO energies
nocc = cell.nelectron // 2  # Number of occupied orbitals

au2ev = 27.211

dft_homo = max(kmf.mo_energy[0][:nocc])
dft_lumo = min(kmf.mo_energy[0][nocc:])
dft_gap = dft_lumo - dft_homo
print("DFT HOMO energy:", dft_lumo*au2ev)
print("DFT LUMO energy:", dft_homo*au2ev)
print("DFT Band gap at Gamma point [eV]:", dft_gap*au2ev)

gw_homo = max(mygw.mo_energy[0][:nocc])
gw_lumo = min(mygw.mo_energy[0][nocc:])
gw_gap = gw_lumo - gw_homo
print("GW HOMO energy:", gw_lumo*au2ev)
print("GW LUMO energy:", gw_homo*au2ev)
print("GW Band gap at Gamma point [eV]:", gw_gap*au2ev)
#INFO: ******************** input file end ********************


System: uname_result(system='Linux', node='hpc-20-34.cm.cluster', release='3.10.0-1160.53.1.el7.x86_64', version='#1 SMP Fri Jan 14 13:59:45 UTC 2022', machine='x86_64')  Threads 30
Python 3.11.5 (main, Sep 11 2023, 13:54:46) [GCC 11.2.0]
numpy 1.26.0  scipy 1.11.3
Date: Mon Dec 11 20:25:02 2023
PySCF version 2.4.0
PySCF path  /groups/wag/pkozlows/miniconda3/envs/pyscf/lib/python3.11/site-packages/pyscf

[ENV] PYSCF_CONFIG_FILE /home/pkozlows
[CONFIG] conf_file /home/pkozlows/.pyscf_conf.py
[INPUT] verbose = 5
[INPUT] max_memory = 479716 
[INPUT] num. atoms = 4
[INPUT] num. electrons = 36
[INPUT] charge = 0
[INPUT] spin (= nelec alpha-beta = 2S) = 0
[INPUT] symmetry False subgroup None
[INPUT] Mole.unit = angstrom
[INPUT] Symbol           X                Y                Z      unit          X                Y                Z       unit  Magmom
[INPUT]  1 Ga     0.000000000000   0.000000000000   0.000000000000 AA    0.000000000000   0.000000000000   0.000000000000 Bohr   0.0
[INPUT]  2 N     -0.000000000000   1.841747358715   0.643929030186 AA   -0.000000000000   3.480398098612   1.216849510709 Bohr   0.0
[INPUT]  3 Ga    -0.000000000000   1.841747358715   2.595000000000 AA   -0.000000000000   3.480398098612   4.903839293246 Bohr   0.0
[INPUT]  4 N      0.000000000000   0.000000000000   3.238929030186 AA    0.000000000000   0.000000000000   6.120688803955 Bohr   0.0
[INPUT] ---------------- BASIS SET ---------------- 
[INPUT] l, kappa, [nprim/nctr], expnt,             c_1 c_2 ...
[INPUT] N
[INPUT] 0    0    [4    /2   ]  6.1526903413      0.1506300537    0
                                1.823633228       -0.0360100734    0
                                0.567662887       -0.6942023212    0
                                0.1628222852      -0.3878929987    1
[INPUT] 1    0    [4    /2   ]  6.1526903413      -0.0950603476    0
                                1.823633228       -0.2918864295    0
                                0.567662887       -0.473905005    0
                                0.1628222852      -0.389341867    1
[INPUT] 2    0    [1    /1   ]  0.817                1
[INPUT] Ga
[INPUT] 0    0    [6    /2   ]  7.06665397037     0.00403882881 -0.031816598052
                                3.42836918        -0.04992601521 0.005769897361
                                1.43006411438     0.270487560795 0.375790997895
                                0.571610928613    0.114461485481 0.388650732034
                                0.232196966975    -0.765662388169 -1.77913961825
                                0.076561670688    -0.4118900947 1.82974373073
[INPUT] 1    0    [6    /2   ]  7.06665397037     0.000167446202 0.029367472355
                                3.42836918        0.003362568505 -0.090542574365
                                1.43006411438     0.130532105798 -0.084206693559
                                0.571610928613    -0.096032824634 0.052258004145
                                0.232196966975    -0.807329497232 1.28873241299
                                0.076561670688    -0.419386452377 -1.21706825483
[INPUT] 2    0    [6    /2   ]  7.06665397037     -0.311164169605 -0.152377671375
                                3.42836918        -0.386388805667 -0.200456714008
                                1.43006411438     -0.341437057173 -0.304563164958
                                0.571610928613    -0.20460821239 0.349719373167
                                0.232196966975    -0.056129936831 0.455579311293
                                0.076561670688    -0.001205250841 0.817649971475
[INPUT] 3    0    [6    /1   ]  7.06665397037     0.008402101637
                                3.42836918        -0.016601774058
                                1.43006411438     0.049257564549
                                0.571610928613    0.451920686398
                                0.232196966975    0.322063208269
                                0.076561670688    1.01855320748

Ewald components = 6.77773183084737, -128.779455527716, 5.42224205397643
nuclear repulsion = -116.579481642892
number of shells = 14
number of NR pGTOs = 234
number of NR cGTOs = 76
basis = gth-dzvp
ecp = {}
CPU time:         0.45
Discarded 8 diffused primitive functions, 0 contracted functions
lattice vectors  a1 [6.028226337, 0.000000000, 0.000000000]
                 a2 [-3.014113169, 5.220597148, 0.000000000]
                 a3 [0.000000000, 0.000000000, 9.807678586]
dimension = 3
low_dim_ft_type = None
Cell volume = 308.657
exp_to_discard = 0.1
rcut = 93 (nimgs = [18 18 10])
lattice sum = 20447 cells
precision = 1e-08
pseudo = gth-pade
ke_cutoff = 887.7119060369721
    = [ 83  83 133] mesh (916237 PWs)


******** <class 'pyscf.pbc.dft.krks.KRKS'> ********
method = KRKS
initial guess = minao
damping factor = 0
level_shift factor = 0
DIIS = <class 'pyscf.scf.diis.CDIIS'>
diis_start_cycle = 1
diis_space = 8
SCF conv_tol = 1e-07
SCF conv_tol_grad = None
SCF max_cycles = 50
direct_scf = True
direct_scf_tol = 1e-13
chkfile to save SCF result = /central/scratch/pkozlows/tmp1yehv_td
max_memory 479716 MB (current use 107 MB)


******** PBC SCF flags ********
N kpts = 27
kpts = [[0.         0.         0.        ]
 [0.         0.         0.21354647]
 [0.         0.         0.42709293]
 [0.         0.40117922 0.        ]
 [0.         0.40117922 0.21354647]
 [0.         0.40117922 0.42709293]
 [0.         0.80235844 0.        ]
 [0.         0.80235844 0.21354647]
 [0.         0.80235844 0.42709293]
 [0.3474314  0.20058961 0.        ]
 [0.3474314  0.20058961 0.21354647]
 [0.3474314  0.20058961 0.42709293]
 [0.3474314  0.60176883 0.        ]
 [0.3474314  0.60176883 0.21354647]
 [0.3474314  0.60176883 0.42709293]
 [0.3474314  1.00294806 0.        ]
 [0.3474314  1.00294806 0.21354647]
 [0.3474314  1.00294806 0.42709293]
 [0.6948628  0.40117922 0.        ]
 [0.6948628  0.40117922 0.21354647]
 [0.6948628  0.40117922 0.42709293]
 [0.6948628  0.80235844 0.        ]
 [0.6948628  0.80235844 0.21354647]
 [0.6948628  0.80235844 0.42709293]
 [0.6948628  1.20353767 0.        ]
 [0.6948628  1.20353767 0.21354647]
 [0.6948628  1.20353767 0.42709293]]
Exchange divergence treatment (exxdiv) = ewald
Ewald components = 2.23368679724563e-09, -0.129121640870431, 0.0670244764868704
    madelung (= occupied orbital energy shift) = 0.12419432429974722
    Total energy shift due to Ewald probe charge = -1/2 * Nelec*madelung = -2.2354978374
DF object = <pyscf.pbc.df.df.GDF object at 0x7f57d089b3d0>
XC functionals = pbe
small_rho_cutoff = 1e-07
radial grids: 
    Treutler-Ahlrichs [JCP 102, 346 (1995); DOI:10.1063/1.469408] (M4) radial grids
    
becke partition: Becke, JCP 88, 2547 (1988); DOI:10.1063/1.454033
pruning grids: <function nwchem_prune at 0x7f57d13d8540>
grids dens level: 3
symmetrized grids: False
atomic radii adjust function: <function treutler_atomic_radii_adjust at 0x7f57d13d8a40>
Set gradient conv threshold to 0.000316228
kmesh for bvk-cell = [3 3 3]


******** <class 'pyscf.pbc.df.rsdf_builder._RSNucBuilder'> ********
mesh = [ 9  9 15] (1215 PWs)
ke_cutoff = 8.691017482676003
omega = 0.3663885436995285
exclude_d_aux = False
exclude_dd_block = True
j2c_eig_always = False
has_long_range = True
Set _RSNucBuilder.direct_scf_tol to 7.81e-15
rs_cell.nbas 14 nao 76
No. smooth_bas in rs_cell 0
sup-mol nbas = 4448 cGTO = 24476 pGTO = 66535
sup-mol-ft nbas = 4027 cGTO = 21846 pGTO = 58631
    CPU time for int3c kernel initialization      0.76 sec, wall time      0.03 sec
Set ft_ao cutoff to 4.30028e-11
kmesh for bvk-cell = [3 3 3]
sup-mol nbas = 2573 cGTO = 14036 pGTO = 38645
    CPU time for int3c kernel initialization      0.43 sec, wall time      0.01 sec
    CPU time for int3c kernel initialization      0.50 sec, wall time      0.02 sec
    CPU time for get_pp     48.63 sec, wall time      2.13 sec
atom Ga rad-grids = 90, ang-grids = [ 50  50  50  50  50  50  50  50  50  50  50  50  50  50  50  50  50  50
  50  50  50  50  50  50  50  50  50  50  50  86  86  86  86  86  86  86
  86  86  86  86  86  86  86  86  86 350 350 350 350 350 350 350 350 350
 350 350 434 434 434 434 434 434 434 434 434 434 434 434 434 434 434 434
 434 434 434 434 434 350 350 350 350 350 350 350 350 350 350 350 350 350]
atom N rad-grids = 75, ang-grids = [ 50  50  50  50  50  50  50  50  50  50  50  50  50  50  50  50  50  50
  50  50  50  50  50  86  86  86  86  86  86  86  86  86 266 266 266 266
 266 266 266 302 302 302 302 302 302 302 302 302 302 302 302 302 302 302
 302 302 302 302 266 266 266 266 266 266 266 266 266 266 266 266 266 266
 266 266 266]
tot grids = 69179
cell vol = 308.656876  sum(weights) = 308.656992
Drop grids 20233
    CPU time for setting up grids     67.40 sec, wall time      2.37 sec
nelec by numeric integration = 36.00009994800748
    CPU time for vxc    172.82 sec, wall time      6.07 sec


******** <class 'pyscf.pbc.df.df.GDF'> ********
auxbasis = None
exp_to_discard = 0.1
_cderi_to_save = /central/scratch/pkozlows/tmph429f_2v
len(kpts) = 27
Even tempered Gaussians are generated as DF auxbasis for  N Ga
  ETB auxbasis for N  [[0, [10.4206262528, 1]], [0, [5.2103131264, 1]], [0, [2.6051565632, 1]], [0, [1.3025782816, 1]], [0, [0.6512891408, 1]], [0, [0.3256445704, 1]], [1, [10.4206262528, 1]], [1, [5.2103131264, 1]], [1, [2.6051565632, 1]], [1, [1.3025782816, 1]], [1, [0.6512891408, 1]], [1, [0.3256445704, 1]], [2, [10.4206262528, 1]], [2, [5.2103131264, 1]], [2, [2.6051565632, 1]], [2, [1.3025782816, 1]], [2, [0.6512891408, 1]], [2, [0.3256445704, 1]], [3, [2.9178162465339725, 1]], [3, [1.4589081232669863, 1]], [3, [0.7294540616334931, 1]], [4, [1.634, 1]]]
  ETB auxbasis for Ga  [[0, [7.4303029432, 1]], [0, [3.7151514716, 1]], [0, [1.8575757358, 1]], [0, [0.9287878679, 1]], [0, [0.46439393395, 1]], [1, [7.4303029432, 1]], [1, [3.7151514716, 1]], [1, [1.8575757358, 1]], [1, [0.9287878679, 1]], [1, [0.46439393395, 1]], [2, [7.4303029432, 1]], [2, [3.7151514716, 1]], [2, [1.8575757358, 1]], [2, [0.9287878679, 1]], [2, [0.46439393395, 1]], [3, [7.4303029432, 1]], [3, [3.7151514716, 1]], [3, [1.8575757358, 1]], [3, [0.9287878679, 1]], [3, [0.46439393395, 1]], [4, [7.4303029432, 1]], [4, [3.7151514716, 1]], [4, [1.8575757358, 1]], [4, [0.9287878679, 1]], [4, [0.46439393395, 1]], [5, [7.4303029432, 1]], [5, [3.7151514716, 1]], [5, [1.8575757358, 1]], [5, [0.9287878679, 1]], [5, [0.46439393395, 1]], [6, [7.4303029432, 1]], [6, [3.7151514716, 1]], [6, [1.8575757358, 1]], [6, [0.9287878679, 1]], [6, [0.46439393395, 1]]]
num shells = 114, num cGTOs = 658
Drop 0 primitive fitting functions
make aux basis, num shells = 114, num cGTOs = 658
auxcell.rcut 12.042448909537999
kmesh for bvk-cell = [3 3 3]


******** <class 'pyscf.pbc.df.rsdf_builder._RSGDFBuilder'> ********
mesh = [ 9  9 13] (1053 PWs)
ke_cutoff = 7.387539092974977
omega = 0.3195805253199986
exclude_d_aux = True
exclude_dd_block = True
j2c_eig_always = False
has_long_range = True
Set _RSGDFBuilder.direct_scf_tol to 7.81e-15
rs_cell.nbas 14 nao 76
No. smooth_bas in rs_cell 0
rs_cell.nbas 114 nao 658
No. smooth_bas in rs_cell 0
sup-mol nbas = 6034 cGTO = 33172 pGTO = 89795
sup-mol-ft nbas = 4027 cGTO = 21846 pGTO = 58631
    CPU time for int3c kernel initialization      1.26 sec, wall time      0.04 sec
    CPU time for pass1: real space int3c2e    399.34 sec, wall time     25.05 sec
Set ft_ao cutoff to 4.30028e-11
Set 2c2e integrals precision 1e-12, mesh [ 9  9 13]
    CPU time for int2c2e      5.82 sec, wall time      0.21 sec
    CPU time for pass2: AFT int3c2e     66.62 sec, wall time      5.89 sec
    CPU time for get_j     38.56 sec, wall time      1.39 sec
    CPU time for vj and vk    506.54 sec, wall time     32.40 sec
Ewald components = 6.77773183084737, -128.779455527716, 5.42224205397643
E1 = (-88.12809278239347+3.962854344495767e-17j)  Ecoul = 61.469688384905844  Exc = -25.541448732787412
init E= -168.779334773167
cond(S) = [33729.9047626  32374.93672677 32374.93672679 32844.05056735
 32227.62275955 32227.62275948 32844.0505674  32227.62275948
 32227.62275945 32844.05056743 32227.6227596  32227.62275958
 28955.73203625 26513.80338302 26513.80338306 32844.0505675
 32227.62275957 32227.6227596  32844.05056747 32227.62275956
 32227.62275959 32844.05056742 32227.62275958 32227.62275952
 28955.73203628 26513.80338306 26513.803383  ]
    CPU time for initialize scf    761.39 sec, wall time     41.90 sec
HOMO = 0.246384786681  LUMO = 0.441061383308
     k-point                  mo_energy
   0 ( 0.000  0.000  0.000)   [-0.30865173 -0.26728657 -0.0409016  -0.04058955 -0.04058087 -0.03557388
 -0.03557013 -0.01751133 -0.01748661 -0.01293424 -0.01290321 -0.00093911
  0.05354985  0.21717991  0.21718525  0.24497346  0.24638236  0.24638479] [ 0.44106138  0.53835432  0.64776889  0.76126586  0.76127211  0.79088676
  0.8189112   0.81893115  1.11206009  1.1121063   1.1875886   1.28000193
  1.28004369  1.28669741  1.28670107  1.33105716  1.35118189  1.43336041
  1.43337225  1.47169124  1.506718    1.63265772  1.63268276  1.92321847
  1.92322432  1.9805982   1.98060136  1.99200612  2.05463196  2.05463326
  2.15764736  2.26880577  2.29807483  2.34176551  2.36123705  2.36124613
  2.43081526  2.43082222  2.5709066   2.57541914  2.57543082  2.6211501
  2.92102056  2.92102114  3.0181487   3.19249137  3.24940849  3.24946396
  3.30269386  3.30270038  6.09967693  6.12145062 10.39000197 10.41948968
 10.4195076  10.50107542 10.50108323 10.71327369]
   1 ( 0.000  0.000  0.333)   [-0.29907331 -0.27839273 -0.03970857 -0.03970067 -0.03960543 -0.03721617
 -0.03721058 -0.02678291 -0.01607589 -0.01605004 -0.01377458 -0.0137457
  0.1125223   0.19819248  0.2244794   0.22448403  0.23908467  0.23908784] [ 0.47719657  0.52508573  0.65857313  0.72308581  0.77099044  0.77099144
  0.79896899  0.79898138  1.13811977  1.13816868  1.20863801  1.20868985
  1.23566263  1.30880147  1.35808021  1.36184968  1.36186386  1.4168811
  1.42513337  1.4251471   1.65399708  1.65402827  1.68854553  1.75506977
  1.75508916  1.90536364  2.06557083  2.06557163  2.19472729  2.19473179
  2.25600256  2.30873909  2.33058024  2.3462038   2.34620759  2.35167548
  2.41686493  2.41686929  2.55215724  2.59805727  2.5980674   2.64874957
  2.78670234  2.78670387  2.91018275  3.06029664  3.26215552  3.26219738
  3.28831404  3.28832631  6.100851    6.11080995 10.37273212 10.41209019
 10.41210367 10.4476108  10.44761237 10.5449309 ]
   2 ( 0.000  0.000  0.667)   [-0.29907331 -0.27839273 -0.03970857 -0.03970067 -0.03960543 -0.03721617
 -0.03721058 -0.02678291 -0.01607589 -0.01605004 -0.01377458 -0.0137457
  0.1125223   0.19819248  0.2244794   0.22448403  0.23908467  0.23908784] [ 0.47719657  0.52508573  0.65857313  0.72308581  0.77099044  0.77099144
  0.79896899  0.79898138  1.13811977  1.13816868  1.20863801  1.20868985
  1.23566263  1.30880147  1.35808021  1.36184968  1.36186386  1.4168811
  1.42513337  1.4251471   1.65399708  1.65402827  1.68854553  1.75506977
  1.75508916  1.90536364  2.06557083  2.06557163  2.19472729  2.19473179
  2.25600256  2.30873909  2.33058024  2.3462038   2.34620759  2.35167548
  2.41686493  2.41686929  2.55215724  2.59805727  2.5980674   2.64874957
  2.78670234  2.78670387  2.91018275  3.06029664  3.26215552  3.26219738
  3.28831404  3.28832631  6.100851    6.11080995 10.37273212 10.41209019
 10.41210367 10.4476108  10.44761237 10.5449309 ]
   3 ( 0.000  0.333  0.000)   [-0.28114582 -0.25693141 -0.03863124 -0.03558036 -0.03293496 -0.02590041
 -0.02558379 -0.02111035 -0.01670135 -0.01568245 -0.01199707  0.00781707
  0.08961713  0.11854776  0.15187934  0.17931501  0.21543718  0.22498404] [ 0.52682016  0.59627511  0.62589163  0.6612745   0.73152657  0.79231549
  0.82772484  0.84670386  0.91363946  1.115656    1.12358007  1.26047181
  1.34205737  1.36224379  1.37089684  1.41310404  1.41867101  1.45839396
  1.51181648  1.59201299  1.65118098  1.72412808  1.73866296  1.82358812
  1.82434312  1.85639421  1.99184412  2.00077898  2.06999697  2.15684047
  2.15814139  2.25026564  2.2538968   2.37305093  2.41581142  2.44613562
  2.51246109  2.58928849  2.73948356  2.75234403  2.79156954  2.792191
  2.87146306  2.93759949  2.9506572   3.05339583  3.09245929  3.18449234
  3.26206718  3.29542057  6.10218876  6.12664459  9.85152433 10.30447703
 10.32830299 10.55355152 10.78586116 10.82465626]
   4 ( 0.000  0.333  0.333)   [-0.27489868 -0.26270213 -0.03856237 -0.03530358 -0.03333128 -0.02846475
 -0.02630234 -0.02454478 -0.01491947 -0.01360686 -0.01312718 -0.0039507
  0.09808104  0.12402034  0.16548761  0.1905504   0.21048887  0.21330722] [ 0.53645248  0.57640488  0.63386537  0.65289984  0.73230917  0.77648797
  0.80514879  0.83201777  0.95865377  1.05881066  1.1618801   1.26785596
  1.31154562  1.34419015  1.37361908  1.41005702  1.42163384  1.44165899
  1.54444083  1.63360528  1.67417555  1.76709876  1.76727974  1.81679647
  1.85715229  1.9504282   1.9588529   2.00360452  2.05292779  2.08480043
  2.135196    2.18511069  2.28379491  2.31338238  2.50728197  2.55925523
  2.57683095  2.61890211  2.7040331   2.72540886  2.73140189  2.78973631
  2.79791749  2.86150318  2.97870939  3.03003632  3.10108211  3.16975924
  3.20426599  3.22284189  6.10593073  6.1177074   9.931589   10.14986637
 10.44589701 10.46331675 10.62208955 10.71083545]
   5 ( 0.000  0.333  0.667)   [-0.27489867 -0.26270213 -0.03856264 -0.03530314 -0.03333127 -0.02846476
 -0.02630243 -0.02454504 -0.01491957 -0.01360693 -0.0131271  -0.00395042
  0.09808139  0.12401985  0.16548748  0.19055037  0.21048905  0.21330726] [ 0.53645326  0.57640347  0.63386411  0.65290265  0.73230772  0.77648878
  0.80514823  0.83201839  0.95865201  1.05881267  1.1618802   1.26785586
  1.31154654  1.34418897  1.37361978  1.41005607  1.42163333  1.44165919
  1.54444149  1.6336046   1.67417546  1.76709919  1.76727966  1.8167967
  1.85715253  1.95042734  1.95885278  2.00360454  2.05292882  2.08479983
  2.13519582  2.18511105  2.28379426  2.31338374  2.50728155  2.55925469
  2.57683052  2.61890141  2.70403381  2.72540959  2.73140185  2.78973562
  2.79791807  2.86150335  2.97870862  3.03003698  3.10108219  3.16975933
  3.20426611  3.22284171  6.10593078  6.11770736  9.9315893  10.14986599
 10.44589751 10.46331679 10.62208917 10.71083539]
   6 ( 0.000  0.667  0.000)   [-0.28114582 -0.25693141 -0.03863124 -0.03558036 -0.03293496 -0.02590041
 -0.02558379 -0.02111035 -0.01670135 -0.01568245 -0.01199707  0.00781707
  0.08961713  0.11854776  0.15187934  0.17931501  0.21543718  0.22498404] [ 0.52682016  0.59627511  0.62589163  0.6612745   0.73152657  0.79231549
  0.82772484  0.84670386  0.91363946  1.115656    1.12358007  1.26047181
  1.34205737  1.36224379  1.37089684  1.41310404  1.41867101  1.45839396
  1.51181648  1.59201299  1.65118098  1.72412808  1.73866296  1.82358812
  1.82434312  1.85639421  1.99184412  2.00077898  2.06999697  2.15684047
  2.15814139  2.25026564  2.2538968   2.37305093  2.41581142  2.44613562
  2.51246109  2.58928849  2.73948356  2.75234403  2.79156954  2.792191
  2.87146306  2.93759949  2.9506572   3.05339583  3.09245929  3.18449234
  3.26206718  3.29542057  6.10218876  6.12664459  9.85152433 10.30447703
 10.32830299 10.55355152 10.78586116 10.82465626]
   7 ( 0.000  0.667  0.333)   [-0.27489867 -0.26270213 -0.03856264 -0.03530314 -0.03333127 -0.02846476
 -0.02630243 -0.02454504 -0.01491957 -0.01360693 -0.0131271  -0.00395042
  0.09808139  0.12401985  0.16548748  0.19055037  0.21048905  0.21330726] [ 0.53645326  0.57640347  0.63386411  0.65290265  0.73230772  0.77648878
  0.80514823  0.83201839  0.95865201  1.05881267  1.1618802   1.26785586
  1.31154654  1.34418897  1.37361978  1.41005607  1.42163333  1.44165919
  1.54444149  1.6336046   1.67417546  1.76709919  1.76727966  1.8167967
  1.85715253  1.95042734  1.95885278  2.00360454  2.05292882  2.08479983
  2.13519582  2.18511105  2.28379426  2.31338374  2.50728155  2.55925469
  2.57683052  2.61890141  2.70403381  2.72540959  2.73140185  2.78973562
  2.79791807  2.86150335  2.97870862  3.03003698  3.10108219  3.16975933
  3.20426611  3.22284171  6.10593078  6.11770736  9.9315893  10.14986599
 10.44589751 10.46331679 10.62208917 10.71083539]
   8 ( 0.000  0.667  0.667)   [-0.27489868 -0.26270213 -0.03856237 -0.03530358 -0.03333128 -0.02846475
 -0.02630234 -0.02454478 -0.01491947 -0.01360686 -0.01312718 -0.0039507
  0.09808104  0.12402034  0.16548761  0.1905504   0.21048887  0.21330722] [ 0.53645248  0.57640488  0.63386537  0.65289984  0.73230917  0.77648797
  0.80514879  0.83201777  0.95865377  1.05881066  1.1618801   1.26785596
  1.31154562  1.34419015  1.37361908  1.41005702  1.42163384  1.44165899
  1.54444083  1.63360528  1.67417555  1.76709876  1.76727974  1.81679647
  1.85715229  1.9504282   1.9588529   2.00360452  2.05292779  2.08480043
  2.135196    2.18511069  2.28379491  2.31338238  2.50728197  2.55925523
  2.57683095  2.61890211  2.7040331   2.72540886  2.73140189  2.78973631
  2.79791749  2.86150318  2.97870939  3.03003632  3.10108211  3.16975924
  3.20426599  3.22284189  6.10593073  6.1177074   9.931589   10.14986637
 10.44589701 10.46331675 10.62208955 10.71083545]
   9 ( 0.333  0.000  0.000)   [-0.28114685 -0.25693425 -0.0386495  -0.03556588 -0.0329395  -0.02589507
 -0.02557646 -0.02111998 -0.01671396 -0.01567244 -0.01197663  0.00780867
  0.08961585  0.11855645  0.1518848   0.17932014  0.21543152  0.22498853] [ 0.52681665  0.5962589   0.62585822  0.66128485  0.73154232  0.792318
  0.82773437  0.8467197   0.91364128  1.11564857  1.1236138   1.26045581
  1.34207432  1.36227131  1.37090903  1.41310104  1.41866753  1.45839714
  1.51176378  1.59204578  1.65119066  1.72413195  1.73866868  1.8235827
  1.82437181  1.85639404  1.99184566  2.00075387  2.06998494  2.15683346
  2.15812718  2.2502838   2.2539156   2.37306259  2.41580923  2.44614519
  2.51245663  2.58928029  2.73946794  2.75235313  2.79161281  2.79221443
  2.87146718  2.93757982  2.95067247  3.05341646  3.09245021  3.18445455
  3.26209992  3.29542115  6.10218915  6.12664554  9.85150513 10.30447
 10.32830903 10.55356631 10.78586103 10.82465121]
  10 ( 0.333  0.000  0.333)   [-0.2749001  -0.26270447 -0.03857849 -0.03531212 -0.03331814 -0.02845587
 -0.02629999 -0.02454644 -0.01490794 -0.01361739 -0.01311047 -0.00396128
  0.09808395  0.12402169  0.1654916   0.19055546  0.21048653  0.21331199] [ 0.53644707  0.57639009  0.63384687  0.65290196  0.73232342  0.77649611
  0.80515433  0.83203072  0.95863497  1.05879472  1.16191186  1.26788114
  1.31155037  1.34421418  1.37362331  1.41005187  1.42164094  1.4416661
  1.54442379  1.6336152   1.67420316  1.76711623  1.76728506  1.81678045
  1.85716631  1.95041536  1.95883976  2.00359734  2.05294128  2.08478014
  2.13519135  2.18510585  2.28381469  2.31338332  2.50727047  2.55926417
  2.57683923  2.61889237  2.7040412   2.72541873  2.73140231  2.78975587
  2.79793246  2.86151803  2.97869882  3.03003809  3.10110784  3.16973026
  3.20429672  3.22283353  6.1059313   6.11770824  9.93156102 10.14984534
 10.44591538 10.46332112 10.62210021 10.71083438]
  11 ( 0.333  0.000  0.667)   [-0.27490011 -0.26270446 -0.03857846 -0.0353121  -0.0333181  -0.02845594
 -0.02630006 -0.02454639 -0.01490793 -0.01361761 -0.01311047 -0.00396104
  0.09808339  0.12402231  0.16549158  0.19055547  0.21048657  0.21331198] [ 0.53644543  0.57639203  0.6338483   0.65289995  0.73232441  0.77649508
  0.80515449  0.83203057  0.95863539  1.05879449  1.16191161  1.26788131
  1.31155212  1.34421286  1.37362125  1.41005337  1.42164081  1.44166642
  1.54442359  1.63361575  1.67420369  1.76711559  1.76728544  1.8167806
  1.85716578  1.95041616  1.95883838  2.00359742  2.0529407   2.08478077
  2.13519141  2.18510566  2.28381484  2.31338302  2.50727131  2.55926431
  2.57683919  2.61889245  2.70404038  2.72541851  2.7314026   2.78975621
  2.79793189  2.8615179   2.9786992   3.03003813  3.1011079   3.1697309
  3.20429655  3.22283317  6.10593129  6.11770823  9.93156057 10.14984538
 10.44591584 10.46332132 10.6221001  10.71083419]
  12 ( 0.333  0.333  0.000)   [-0.25900837 -0.25900646 -0.03937264 -0.028045   -0.02802689 -0.02126638
 -0.01887313 -0.01886648 -0.01631029 -0.01551374  0.00460741  0.0046207
  0.10369806  0.10551048  0.10551189  0.17002059  0.17002995  0.17894305] [ 0.6046429   0.60465195  0.63083103  0.65179377  0.72254199  0.72257131
  0.85328698  0.8584879   0.8585125   1.12727486  1.1273072   1.17788777
  1.31976223  1.41962241  1.41964249  1.43152593  1.49953769  1.49957532
  1.5516484   1.5808929   1.61371691  1.61375347  1.80771756  1.80772278
  1.99570917  2.03570461  2.03571169  2.05859617  2.05860673  2.07036377
  2.13548455  2.205875    2.20589256  2.40064593  2.47824579  2.47825188
  2.56628962  2.71852215  2.71852751  2.7786992   2.77871496  2.78639735
  2.84836042  2.84836253  2.99591586  3.07700646  3.0957405   3.09576584
  3.32814043  3.32814617  6.13654774  6.13654878  9.36603209 10.33560223
 10.49650801 10.49653792 10.60694861 10.60696414]
  13 ( 0.333  0.333  0.333)   [-0.25831005 -0.25830907 -0.03538057 -0.03128111 -0.03127387 -0.02586241
 -0.01881887 -0.0188169  -0.01706949 -0.01670491  0.00657519  0.00658164
  0.08941498  0.08941574  0.12198631  0.15896985  0.19489561  0.19489916] [ 0.6088481   0.6088546   0.64009617  0.64965705  0.68010632  0.68011836
  0.88888214  0.88888979  0.90497495  1.04812613  1.10817926  1.10819264
  1.34682957  1.38661368  1.41177151  1.41178305  1.4962615   1.49627686
  1.67031284  1.67033299  1.68168733  1.70531211  1.80730252  1.80730787
  1.88617506  1.98497799  1.98498065  2.00007974  2.08861806  2.08862241
  2.16078141  2.25029267  2.25029621  2.30346421  2.56185538  2.56186785
  2.65092059  2.65092229  2.65949026  2.76038515  2.78034789  2.78036228
  2.81807784  2.81808058  3.00320329  3.0426376   3.04929309  3.04931235
  3.26053079  3.26054277  6.13037861  6.13037921  9.67683022 10.15609712
 10.37611815 10.37613998 10.52261051 10.52261191]
  14 ( 0.333  0.333  0.667)   [-0.25831005 -0.25830907 -0.03538057 -0.03128117 -0.03127383 -0.02586241
 -0.0188189  -0.01881685 -0.01706949 -0.01670491  0.00657521  0.00658164
  0.08941501  0.08941569  0.12198631  0.15896985  0.19489556  0.19489922] [ 0.6088482   0.60885452  0.64009615  0.64965706  0.68010623  0.68011841
  0.88888151  0.88889041  0.904975    1.04812605  1.10818043  1.1081915
  1.34682967  1.3866136   1.41177153  1.411783    1.4962616   1.49627675
  1.67031262  1.67033321  1.68168729  1.70531214  1.80730288  1.80730741
  1.88617517  1.98497801  1.98498073  2.00007973  2.08861823  2.08862225
  2.16078124  2.25029279  2.25029614  2.30346432  2.56185543  2.56186784
  2.65092077  2.65092215  2.65949022  2.76038517  2.78034787  2.78036214
  2.81807778  2.8180807   3.00320332  3.04263757  3.04929315  3.04931226
  3.2605307   3.26054285  6.13037859  6.13037922  9.67683025 10.15609709
 10.37611784 10.3761403  10.52261063 10.52261178]
  15 ( 0.333  0.667  0.000)   [-0.28114679 -0.25693422 -0.03864942 -0.03556608 -0.03293941 -0.0258952
 -0.02557642 -0.02111991 -0.0167139  -0.01567249 -0.01197671  0.00780876
  0.08961619  0.11855602  0.15188479  0.17931988  0.21543144  0.22498845] [ 0.52681668  0.59625888  0.62585914  0.6612833   0.73154291  0.79231717
  0.82773403  0.8467187   0.91364078  1.11564981  1.1236123   1.26045893
  1.34207346  1.36227037  1.37091002  1.41309971  1.41866821  1.45839658
  1.51176473  1.5920446   1.6511906   1.72413238  1.73866859  1.82358328
  1.82437141  1.85639413  1.99184576  2.00075373  2.06998502  2.15683363
  2.15812742  2.25028263  2.25391516  2.37306225  2.41580883  2.44614476
  2.51245748  2.58927997  2.73946851  2.75235292  2.7916134   2.792214
  2.87146754  2.93758153  2.95067135  3.0534145   3.09245026  3.18445577
  3.26209794  3.29542146  6.10218916  6.12664562  9.851505   10.30447007
 10.32830828 10.55356632 10.78586137 10.82465068]
  16 ( 0.333  0.667  0.333)   [-0.27490005 -0.26270442 -0.03857835 -0.03531202 -0.0333183  -0.02845607
 -0.02630002 -0.02454639 -0.01490797 -0.0136175  -0.01311055 -0.00396097
  0.09808341  0.1240222   0.16549159  0.19055526  0.21048653  0.21331184] [ 0.53644551  0.57639212  0.63384798  0.65289927  0.73232504  0.77649491
  0.80515355  0.83202966  0.95863632  1.05879509  1.16191026  1.26787972
  1.31155267  1.34421345  1.37362324  1.41005374  1.42164049  1.44166518
  1.54442376  1.6336163   1.67420273  1.76711519  1.767285    1.81678087
  1.85716589  1.95041601  1.95883957  2.00359752  2.05294039  2.08478024
  2.13519204  2.18510572  2.28381421  2.31338242  2.50727139  2.55926368
  2.57683961  2.61889228  2.70404074  2.72541818  2.7314029   2.78975567
  2.79793186  2.86151708  2.97870042  3.03003857  3.10110577  3.16973148
  3.2042946   3.22283435  6.10593129  6.11770831  9.93156088 10.14984534
 10.44591593 10.46332073 10.62210031 10.71083352]
  17 ( 0.333  0.667  0.667)   [-0.27490004 -0.26270443 -0.03857843 -0.03531198 -0.03331831 -0.02845604
 -0.02629995 -0.02454639 -0.014908   -0.01361737 -0.01311053 -0.00396118
  0.09808396  0.12402172  0.1654914   0.19055523  0.21048661  0.21331188] [ 0.53644702  0.5763902   0.63384706  0.65290116  0.73232371  0.77649595
  0.80515351  0.83202968  0.95863541  1.05879624  1.1619103   1.26788011
  1.31155236  1.34421332  1.37362347  1.41005328  1.42163919  1.44166581
  1.54442474  1.63361541  1.67420256  1.76711606  1.76728477  1.81678125
  1.85716563  1.95041557  1.95883978  2.00359742  2.05294129  2.08478007
  2.13519146  2.18510576  2.28381402  2.31338309  2.50727072  2.55926371
  2.57683863  2.61889177  2.70404186  2.72541843  2.7314027   2.78975531
  2.7979326   2.8615172   2.97870076  3.03003826  3.10110578  3.16973132
  3.20429464  3.22283478  6.10593133  6.11770826  9.93156069 10.14984545
 10.44591564 10.46332031 10.62210056 10.71083388]
  18 ( 0.667  0.000  0.000)   [-0.28114685 -0.25693425 -0.0386495  -0.03556588 -0.0329395  -0.02589507
 -0.02557646 -0.02111998 -0.01671396 -0.01567244 -0.01197663  0.00780867
  0.08961585  0.11855645  0.1518848   0.17932014  0.21543152  0.22498853] [ 0.52681665  0.5962589   0.62585822  0.66128485  0.73154232  0.792318
  0.82773437  0.8467197   0.91364128  1.11564857  1.1236138   1.26045581
  1.34207432  1.36227131  1.37090903  1.41310104  1.41866753  1.45839714
  1.51176378  1.59204578  1.65119066  1.72413196  1.73866868  1.8235827
  1.82437181  1.85639404  1.99184566  2.00075387  2.06998494  2.15683346
  2.15812718  2.2502838   2.2539156   2.37306259  2.41580923  2.44614519
  2.51245663  2.58928029  2.73946794  2.75235313  2.79161281  2.79221443
  2.87146718  2.93757982  2.95067247  3.05341646  3.09245021  3.18445455
  3.26209992  3.29542115  6.10218915  6.12664554  9.85150513 10.30447
 10.32830903 10.55356631 10.78586103 10.82465121]
  19 ( 0.667  0.000  0.333)   [-0.27490011 -0.26270446 -0.03857846 -0.0353121  -0.0333181  -0.02845594
 -0.02630006 -0.02454639 -0.01490793 -0.01361761 -0.01311047 -0.00396104
  0.09808339  0.12402231  0.16549158  0.19055547  0.21048657  0.21331198] [ 0.53644543  0.57639203  0.6338483   0.65289995  0.73232441  0.77649508
  0.80515449  0.83203057  0.95863539  1.05879449  1.16191161  1.26788131
  1.31155212  1.34421286  1.37362125  1.41005337  1.42164081  1.44166642
  1.54442359  1.63361575  1.67420369  1.76711559  1.76728544  1.8167806
  1.85716578  1.95041616  1.95883838  2.00359742  2.0529407   2.08478077
  2.13519141  2.18510566  2.28381484  2.31338302  2.50727131  2.55926431
  2.57683919  2.61889245  2.70404038  2.72541851  2.7314026   2.78975621
  2.79793189  2.8615179   2.9786992   3.03003813  3.1011079   3.1697309
  3.20429655  3.22283317  6.10593129  6.11770823  9.93156057 10.14984538
 10.44591584 10.46332132 10.6221001  10.71083419]
  20 ( 0.667  0.000  0.667)   [-0.2749001  -0.26270447 -0.03857849 -0.03531212 -0.03331814 -0.02845587
 -0.02629999 -0.02454644 -0.01490794 -0.01361739 -0.01311047 -0.00396128
  0.09808395  0.12402169  0.1654916   0.19055546  0.21048653  0.21331199] [ 0.53644707  0.57639009  0.63384687  0.65290196  0.73232342  0.77649611
  0.80515433  0.83203072  0.95863497  1.05879472  1.16191186  1.26788114
  1.31155037  1.34421418  1.37362331  1.41005187  1.42164094  1.4416661
  1.54442379  1.6336152   1.67420316  1.76711623  1.76728506  1.81678045
  1.85716631  1.95041536  1.95883976  2.00359734  2.05294128  2.08478014
  2.13519135  2.18510585  2.28381469  2.31338332  2.50727047  2.55926417
  2.57683923  2.61889237  2.7040412   2.72541873  2.73140231  2.78975587
  2.79793246  2.86151803  2.97869882  3.03003809  3.10110784  3.16973026
  3.20429672  3.22283353  6.1059313   6.11770824  9.93156102 10.14984534
 10.44591538 10.46332112 10.62210021 10.71083438]
  21 ( 0.667  0.333  0.000)   [-0.28114679 -0.25693422 -0.03864942 -0.03556608 -0.03293941 -0.0258952
 -0.02557642 -0.02111991 -0.0167139  -0.01567249 -0.01197671  0.00780876
  0.08961619  0.11855602  0.15188479  0.17931988  0.21543144  0.22498845] [ 0.52681668  0.59625888  0.62585914  0.6612833   0.73154291  0.79231717
  0.82773403  0.8467187   0.91364078  1.11564981  1.1236123   1.26045893
  1.34207346  1.36227037  1.37091002  1.41309971  1.41866821  1.45839658
  1.51176473  1.5920446   1.6511906   1.72413238  1.73866859  1.82358328
  1.82437141  1.85639413  1.99184576  2.00075373  2.06998502  2.15683363
  2.15812742  2.25028263  2.25391516  2.37306225  2.41580883  2.44614476
  2.51245748  2.58927997  2.73946851  2.75235292  2.7916134   2.792214
  2.87146754  2.93758153  2.95067135  3.0534145   3.09245026  3.18445577
  3.26209794  3.29542146  6.10218916  6.12664562  9.851505   10.30447007
 10.32830828 10.55356632 10.78586137 10.82465068]
  22 ( 0.667  0.333  0.333)   [-0.27490004 -0.26270443 -0.03857843 -0.03531198 -0.03331831 -0.02845604
 -0.02629995 -0.02454639 -0.014908   -0.01361737 -0.01311053 -0.00396118
  0.09808396  0.12402172  0.1654914   0.19055523  0.21048661  0.21331188] [ 0.53644702  0.5763902   0.63384706  0.65290116  0.73232371  0.77649595
  0.80515351  0.83202968  0.95863541  1.05879624  1.1619103   1.26788011
  1.31155236  1.34421332  1.37362347  1.41005328  1.42163919  1.44166581
  1.54442474  1.63361541  1.67420256  1.76711606  1.76728477  1.81678125
  1.85716563  1.95041557  1.95883978  2.00359742  2.05294129  2.08478007
  2.13519146  2.18510576  2.28381402  2.31338309  2.50727072  2.55926371
  2.57683863  2.61889177  2.70404186  2.72541843  2.7314027   2.78975531
  2.7979326   2.8615172   2.97870076  3.03003826  3.10110578  3.16973132
  3.20429464  3.22283478  6.10593133  6.11770826  9.93156069 10.14984545
 10.44591564 10.46332031 10.62210056 10.71083388]
  23 ( 0.667  0.333  0.667)   [-0.27490005 -0.26270442 -0.03857835 -0.03531202 -0.0333183  -0.02845607
 -0.02630002 -0.02454639 -0.01490797 -0.0136175  -0.01311055 -0.00396097
  0.09808341  0.1240222   0.16549159  0.19055526  0.21048653  0.21331184] [ 0.53644551  0.57639212  0.63384798  0.65289927  0.73232504  0.77649491
  0.80515355  0.83202966  0.95863632  1.05879509  1.16191026  1.26787972
  1.31155267  1.34421345  1.37362324  1.41005374  1.42164049  1.44166518
  1.54442376  1.6336163   1.67420273  1.76711519  1.767285    1.81678087
  1.85716589  1.95041601  1.95883957  2.00359752  2.05294039  2.08478024
  2.13519204  2.18510572  2.28381421  2.31338242  2.50727139  2.55926368
  2.57683961  2.61889228  2.70404074  2.72541818  2.7314029   2.78975567
  2.79793186  2.86151708  2.97870042  3.03003857  3.10110577  3.16973148
  3.2042946   3.22283435  6.10593129  6.11770831  9.93156088 10.14984534
 10.44591593 10.46332073 10.62210031 10.71083352]
  24 ( 0.667  0.667  0.000)   [-0.25900837 -0.25900646 -0.03937264 -0.028045   -0.02802689 -0.02126638
 -0.01887313 -0.01886648 -0.01631029 -0.01551374  0.00460741  0.0046207
  0.10369806  0.10551048  0.10551189  0.17002059  0.17002995  0.17894305] [ 0.6046429   0.60465195  0.63083103  0.65179377  0.72254199  0.72257131
  0.85328698  0.8584879   0.8585125   1.12727486  1.1273072   1.17788777
  1.31976223  1.41962241  1.41964249  1.43152593  1.49953769  1.49957532
  1.5516484   1.5808929   1.61371691  1.61375347  1.80771756  1.80772278
  1.99570917  2.03570461  2.03571169  2.05859617  2.05860673  2.07036377
  2.13548455  2.205875    2.20589256  2.40064593  2.47824579  2.47825188
  2.56628962  2.71852215  2.71852751  2.7786992   2.77871496  2.78639735
  2.84836042  2.84836253  2.99591586  3.07700646  3.0957405   3.09576584
  3.32814043  3.32814617  6.13654774  6.13654878  9.36603209 10.33560223
 10.49650801 10.49653792 10.60694861 10.60696414]
  25 ( 0.667  0.667  0.333)   [-0.25831005 -0.25830907 -0.03538057 -0.03128117 -0.03127383 -0.02586241
 -0.0188189  -0.01881685 -0.01706949 -0.01670491  0.00657521  0.00658164
  0.08941501  0.08941569  0.12198631  0.15896985  0.19489556  0.19489922] [ 0.6088482   0.60885452  0.64009615  0.64965706  0.68010623  0.68011841
  0.88888151  0.88889041  0.904975    1.04812605  1.10818043  1.1081915
  1.34682967  1.3866136   1.41177153  1.411783    1.4962616   1.49627675
  1.67031262  1.67033321  1.68168729  1.70531214  1.80730288  1.80730741
  1.88617517  1.98497801  1.98498073  2.00007973  2.08861823  2.08862225
  2.16078124  2.25029279  2.25029614  2.30346432  2.56185543  2.56186784
  2.65092077  2.65092215  2.65949022  2.76038517  2.78034787  2.78036214
  2.81807778  2.8180807   3.00320332  3.04263757  3.04929315  3.04931226
  3.2605307   3.26054285  6.13037859  6.13037922  9.67683025 10.15609709
 10.37611784 10.3761403  10.52261063 10.52261178]
  26 ( 0.667  0.667  0.667)   [-0.25831005 -0.25830907 -0.03538057 -0.03128111 -0.03127387 -0.02586241
 -0.01881887 -0.0188169  -0.01706949 -0.01670491  0.00657519  0.00658164
  0.08941498  0.08941574  0.12198631  0.15896985  0.19489561  0.19489916] [ 0.6088481   0.6088546   0.64009617  0.64965705  0.68010632  0.68011836
  0.88888214  0.88888979  0.90497495  1.04812613  1.10817926  1.10819264
  1.34682957  1.38661368  1.41177151  1.41178305  1.4962615   1.49627686
  1.67031284  1.67033299  1.68168733  1.70531211  1.80730252  1.80730787
  1.88617506  1.98497799  1.98498065  2.00007974  2.08861806  2.08862241
  2.16078141  2.25029267  2.25029621  2.30346421  2.56185538  2.56186785
  2.65092059  2.65092229  2.65949026  2.76038515  2.78034789  2.78036228
  2.81807784  2.81808058  3.00320329  3.0426376   3.04929309  3.04931235
  3.26053079  3.26054277  6.13037861  6.13037921  9.67683022 10.15609712
 10.37611815 10.37613998 10.52261051 10.52261191]
nelec by numeric integration = 36.00007443648434
    CPU time for vxc     41.64 sec, wall time      1.43 sec
    CPU time for get_j     46.03 sec, wall time      1.64 sec
    CPU time for vj and vk     46.04 sec, wall time      1.64 sec
Ewald components = 6.77773183084737, -128.779455527716, 5.42224205397643
E1 = (-86.60267371168067+5.000000978892432e-17j)  Ecoul = 60.311295331149346  Exc = -26.146458211642397
cycle= 1 E= -169.017318235066  delta_E= -0.238  |g|= 8.38  |ddm|= 20.7
    CPU time for cycle= 1     93.27 sec, wall time      3.26 sec
HOMO = 0.576889996294  LUMO = 0.602605739443
     k-point                  mo_energy
   0 ( 0.000  0.000  0.000)   [-0.30840174 -0.3065646  -0.30652564 -0.30651958 -0.30598931 -0.30598611
 -0.30414049 -0.30411106 -0.30176101 -0.3017283  -0.0978426   0.04537631
  0.16014951  0.49412011  0.49413444  0.57025162  0.57688957  0.57689   ] [ 0.60802425  0.62095482  0.72241556  0.72241683  0.7632795   0.84185926
  0.84187658  0.97258053  1.10106586  1.1011161   1.14129659  1.25436875
  1.25437929  1.32338476  1.36168864  1.41403334  1.41407479  1.45394632
  1.59562886  1.59564894  1.68499942  1.68502116  1.76097047  2.00859019
  2.00859321  2.02892562  2.03741277  2.03742609  2.06660456  2.06661242
  2.21900799  2.23987932  2.28129846  2.35349201  2.4308559   2.43085704
  2.58536155  2.58537217  2.61791753  2.71979973  2.85030659  2.85031797
  3.06652704  3.06653217  3.22893384  3.35945027  3.42497655  3.42500999
  3.44208722  3.44208994  5.80826696  5.83399893 10.19630598 10.22544869
 10.22545479 10.30875057 10.30876321 10.50342607]
   1 ( 0.000  0.000  0.333)   [-0.30785275 -0.30692697 -0.30662476 -0.30661798 -0.30630606 -0.30630111
 -0.30331985 -0.30329105 -0.30218035 -0.30214946 -0.07767112 -0.01802603
  0.26152192  0.42640382  0.51082728  0.51083877  0.55105425  0.55105856] [ 0.62350042  0.66772474  0.74683335  0.74683717  0.79293021  0.80335601
  0.8033679   0.91472028  1.15642874  1.15647585  1.1953089   1.2845436
  1.28458126  1.29277607  1.35417047  1.35417738  1.39379984  1.46135738
  1.5081258   1.50814188  1.78407558  1.78409947  1.82694895  1.87759753
  1.87761518  1.94545926  2.11199412  2.11199905  2.19390083  2.19390337
  2.24998928  2.27069489  2.3435239   2.42350552  2.42350632  2.45255835
  2.54563587  2.54564115  2.62891955  2.6653213   2.85881736  2.8588272
  2.96388294  2.96388793  3.14952587  3.23879055  3.43106918  3.43109684
  3.43956909  3.43957925  5.80980021  5.82161444 10.1798628  10.21894587
 10.21894927 10.25547637 10.25548194 10.34364945]
   2 ( 0.000  0.000  0.667)   [-0.30785275 -0.30692697 -0.30662476 -0.30661798 -0.30630606 -0.30630111
 -0.30331985 -0.30329105 -0.30218035 -0.30214946 -0.07767112 -0.01802603
  0.26152192  0.42640382  0.51082728  0.51083877  0.55105425  0.55105856] [ 0.62350042  0.66772474  0.74683335  0.74683717  0.79293021  0.80335601
  0.8033679   0.91472028  1.15642874  1.15647585  1.1953089   1.2845436
  1.28458126  1.29277607  1.35417047  1.35417738  1.39379984  1.46135738
  1.5081258   1.50814188  1.78407558  1.78409947  1.82694895  1.87759753
  1.87761518  1.94545926  2.11199412  2.11199905  2.19390083  2.19390337
  2.24998928  2.27069489  2.3435239   2.42350552  2.42350632  2.45255835
  2.54563587  2.54564115  2.62891955  2.6653213   2.85881736  2.8588272
  2.96388294  2.96388793  3.14952587  3.23879055  3.43106918  3.43109684
  3.43956909  3.43957925  5.80980021  5.82161444 10.1798628  10.21894587
 10.21894927 10.25547637 10.25548194 10.34364945]
   3 ( 0.000  0.333  0.000)   [-0.30973144 -0.30783613 -0.30585892 -0.30560015 -0.30470015 -0.3035643
 -0.30328043 -0.30309726 -0.30291753 -0.30155353 -0.0285055   0.09889689
  0.19949474  0.26974323  0.3422221   0.40918253  0.4580472   0.51632761] [ 0.61383904  0.69804699  0.76121324  0.78761872  0.82802485  0.94698021
  0.95458477  0.98361223  1.00361721  1.14501945  1.14956498  1.26391499
  1.40209431  1.42658939  1.44299506  1.49399569  1.49935967  1.54986792
  1.58757336  1.60497925  1.66841783  1.72788848  1.73851453  1.83410645
  1.83888137  1.9307613   2.00996062  2.04266589  2.11202248  2.17138672
  2.21194966  2.22783333  2.24627375  2.44468183  2.51909342  2.52615799
  2.63972405  2.70964009  2.76847227  2.90810664  2.95739096  2.97172467
  3.06306423  3.095466    3.1443092   3.28154384  3.30451449  3.36221029
  3.44121059  3.44674137  5.81168432  5.8394632   9.66890073 10.11223638
 10.13761195 10.35374747 10.57531254 10.61502535]
   4 ( 0.000  0.333  0.333)   [-0.30923688 -0.30828895 -0.30623608 -0.30529448 -0.30488282 -0.3036372
 -0.30325823 -0.3027725  -0.30238888 -0.30209112 -0.00907799  0.04629577
  0.22919694  0.28614667  0.35147659  0.4290223   0.47521126  0.4797498 ] [ 0.6026248   0.65536896  0.72924052  0.81801928  0.84855019  0.89718446
  0.95311824  0.95338966  1.04898184  1.14590259  1.18127193  1.28923639
  1.32750808  1.39804331  1.46206537  1.50519829  1.5249603   1.55732727
  1.59700842  1.63904661  1.69420325  1.75491062  1.78369838  1.8455502
  1.85063129  1.94912028  2.01028809  2.02867732  2.09077633  2.09457996
  2.16718522  2.18482561  2.33301253  2.40234457  2.60817926  2.62163868
  2.64642107  2.71823539  2.73672054  2.83666845  2.94499361  2.97680466
  2.99062124  3.08015661  3.15272343  3.23592657  3.30760489  3.35674629
  3.39141062  3.39971077  5.81598834  5.82939314  9.74917778  9.96268185
 10.25146302 10.26759086 10.4187289  10.50565693]
   5 ( 0.000  0.333  0.667)   [-0.3092368  -0.30828918 -0.30623568 -0.30529474 -0.3048828  -0.30363712
 -0.30325819 -0.30277276 -0.3023889  -0.30209097 -0.00907799  0.04629571
  0.22919765  0.28614576  0.35147639  0.42902228  0.47521176  0.47974985] [ 0.60262533  0.65536886  0.72923981  0.81801927  0.84855002  0.89718513
  0.95311843  0.95338946  1.04897979  1.14590512  1.18127212  1.28923606
  1.32750856  1.39804225  1.46206647  1.50519707  1.52495963  1.55732789
  1.59700858  1.63904601  1.69420311  1.75491132  1.78369904  1.84554989
  1.85063106  1.9491193   2.01028831  2.02867739  2.09077736  2.09457978
  2.16718515  2.18482558  2.33301236  2.40234491  2.60817956  2.62163867
  2.64642038  2.71823542  2.7367205   2.83666822  2.94499411  2.97680476
  2.99062074  3.08015696  3.15272292  3.23592712  3.30760492  3.35674589
  3.39141075  3.39971096  5.8159884   5.82939307  9.74917803  9.96268151
 10.25146352 10.26759089 10.41872853 10.50565688]
   6 ( 0.000  0.667  0.000)   [-0.30973144 -0.30783613 -0.30585892 -0.30560015 -0.30470015 -0.3035643
 -0.30328043 -0.30309726 -0.30291753 -0.30155353 -0.0285055   0.09889689
  0.19949474  0.26974323  0.3422221   0.40918253  0.4580472   0.51632761] [ 0.61383904  0.69804699  0.76121324  0.78761872  0.82802485  0.94698021
  0.95458477  0.98361223  1.00361721  1.14501945  1.14956498  1.26391499
  1.40209431  1.42658939  1.44299506  1.49399569  1.49935967  1.54986792
  1.58757336  1.60497925  1.66841783  1.72788848  1.73851453  1.83410645
  1.83888137  1.9307613   2.00996062  2.04266589  2.11202248  2.17138672
  2.21194966  2.22783333  2.24627375  2.44468183  2.51909342  2.52615799
  2.63972405  2.70964009  2.76847227  2.90810664  2.95739096  2.97172467
  3.06306423  3.095466    3.1443092   3.28154384  3.30451449  3.36221029
  3.44121059  3.44674137  5.81168432  5.8394632   9.66890073 10.11223638
 10.13761195 10.35374747 10.57531254 10.61502535]
   7 ( 0.000  0.667  0.333)   [-0.3092368  -0.30828918 -0.30623568 -0.30529474 -0.3048828  -0.30363712
 -0.30325819 -0.30277276 -0.3023889  -0.30209097 -0.00907799  0.04629571
  0.22919765  0.28614576  0.35147639  0.42902228  0.47521176  0.47974985] [ 0.60262533  0.65536886  0.72923981  0.81801927  0.84855002  0.89718513
  0.95311843  0.95338946  1.04897979  1.14590512  1.18127212  1.28923606
  1.32750856  1.39804225  1.46206647  1.50519707  1.52495963  1.55732789
  1.59700858  1.63904601  1.69420311  1.75491132  1.78369904  1.84554989
  1.85063106  1.9491193   2.01028831  2.02867739  2.09077736  2.09457978
  2.16718515  2.18482558  2.33301236  2.40234491  2.60817956  2.62163867
  2.64642038  2.71823542  2.7367205   2.83666822  2.94499411  2.97680476
  2.99062074  3.08015696  3.15272292  3.23592712  3.30760492  3.35674589
  3.39141075  3.39971096  5.8159884   5.82939307  9.74917803  9.96268151
 10.25146352 10.26759089 10.41872853 10.50565688]
   8 ( 0.000  0.667  0.667)   [-0.30923688 -0.30828895 -0.30623608 -0.30529448 -0.30488282 -0.3036372
 -0.30325823 -0.3027725  -0.30238888 -0.30209112 -0.00907799  0.04629577
  0.22919694  0.28614667  0.35147659  0.4290223   0.47521126  0.4797498 ] [ 0.6026248   0.65536896  0.72924052  0.81801928  0.84855019  0.89718446
  0.95311824  0.95338966  1.04898184  1.14590259  1.18127193  1.28923639
  1.32750808  1.39804331  1.46206537  1.50519829  1.5249603   1.55732727
  1.59700842  1.63904661  1.69420325  1.75491062  1.78369838  1.8455502
  1.85063129  1.94912028  2.01028809  2.02867732  2.09077633  2.09457996
  2.16718522  2.18482561  2.33301253  2.40234457  2.60817926  2.62163868
  2.64642107  2.71823539  2.73672054  2.83666845  2.94499361  2.97680466
  2.99062124  3.08015661  3.15272343  3.23592657  3.30760489  3.35674629
  3.39141062  3.39971077  5.81598834  5.82939314  9.74917778  9.96268185
 10.25146302 10.26759086 10.4187289  10.50565693]
   9 ( 0.333  0.000  0.000)   [-0.30975351 -0.30783754 -0.30588539 -0.30557735 -0.30470084 -0.3035692
 -0.30327746 -0.30309484 -0.30291344 -0.30152958 -0.0285054   0.09889008
  0.19949285  0.26976314  0.3422366   0.40919528  0.45803467  0.5163346 ] [ 0.61379781  0.69802724  0.76122093  0.7876243   0.82801892  0.9469901
  0.95459632  0.98362614  1.00362128  1.14500409  1.1495917   1.26389133
  1.40211724  1.42660614  1.4430188   1.4939938   1.49936918  1.54986972
  1.58759925  1.60494377  1.66843235  1.72787074  1.73853233  1.83408939
  1.83891284  1.93076338  2.00996544  2.04265054  2.11201315  2.17137562
  2.2119429   2.22784659  2.24628533  2.44468527  2.51909868  2.52615974
  2.63973616  2.70962606  2.76850315  2.90810013  2.95739376  2.97173807
  3.06305601  3.09545858  3.14431633  3.28155519  3.30449803  3.36219376
  3.44123695  3.44674056  5.81168465  5.83946381  9.6688866  10.11223112
 10.13761007 10.35376013 10.57532159 10.61501437]
  10 ( 0.333  0.000  0.333)   [-0.30925655 -0.3083     -0.30624902 -0.30530143 -0.30486248 -0.30362804
 -0.30325994 -0.30276645 -0.3023891  -0.30207341 -0.00907848  0.04629305
  0.22919987  0.28615034  0.35149166  0.42903415  0.47521034  0.47975911] [ 0.60260761  0.65534231  0.72922264  0.81801482  0.84855368  0.89719033
  0.95312105  0.95340213  1.04898093  1.14588915  1.18129916  1.28926076
  1.32750117  1.39806449  1.46209058  1.50520185  1.52495972  1.55732489
  1.59699997  1.63905247  1.69423314  1.75490481  1.78371722  1.8455346
  1.85065656  1.94910605  2.01027205  2.02867929  2.09078855  2.09456524
  2.16718821  2.18482087  2.3330217   2.40235215  2.60817775  2.62164763
  2.64641995  2.71822781  2.73674225  2.83665171  2.94499772  2.97680815
  2.9906346   3.08016682  3.15271205  3.23592438  3.30762105  3.35672771
  3.39143415  3.39970369  5.81598882  5.82939371  9.74915324  9.96266293
 10.25148374 10.26758768 10.41874656 10.50564929]
  11 ( 0.333  0.000  0.667)   [-0.30925651 -0.3083001  -0.30624904 -0.30530129 -0.30486239 -0.30362827
 -0.30326005 -0.30276628 -0.30238906 -0.30207342 -0.00907849  0.04629312
  0.22919916  0.28615121  0.35149194  0.42903416  0.47521001  0.47975908] [ 0.60260574  0.65534339  0.72922387  0.81801458  0.84855375  0.89719092
  0.95312103  0.95340085  1.04898141  1.14588852  1.18129893  1.28926097
  1.32750301  1.39806359  1.46208797  1.50520397  1.52495981  1.55732488
  1.59700001  1.63905288  1.69423363  1.75490438  1.7837164   1.8455355
  1.85065648  1.94910602  2.01027112  2.02867939  2.09078822  2.09456554
  2.16718823  2.18482081  2.33302191  2.40235182  2.60817834  2.62164752
  2.64642012  2.71822743  2.73674237  2.83665167  2.94499729  2.97680795
  2.99063481  3.08016668  3.15271278  3.23592401  3.30762113  3.35672868
  3.39143397  3.39970304  5.8159888   5.82939372  9.74915286  9.96266298
 10.25148406 10.26758785 10.41874652 10.50564913]
  12 ( 0.333  0.333  0.000)   [-0.3079979  -0.30798288 -0.30719706 -0.3041786  -0.30417353 -0.30408472
 -0.30327508 -0.30289969 -0.30287896 -0.30190679  0.07754418  0.07754736
  0.24466595  0.24749647  0.2475008   0.36171946  0.36173719  0.37738359] [ 0.62204891  0.84758107  0.84758613  0.88124047  0.88126295  0.91662526
  0.91663532  0.91789163  1.0584216   1.12337544  1.12340947  1.18269033
  1.35511983  1.4590883   1.51469671  1.51473078  1.55535508  1.57272872
  1.57274314  1.61995251  1.68339124  1.68340899  1.81309729  1.81310457
  1.97788916  2.0265223   2.02652539  2.07389299  2.0738977   2.1022761
  2.13462811  2.26858665  2.26860039  2.39724739  2.45684058  2.45684685
  2.79995273  2.81225616  2.81226834  2.97116122  2.97117071  3.01730447
  3.0237201   3.02372426  3.25226196  3.28875542  3.28876873  3.31396874
  3.44188138  3.44189363  5.85110917  5.85111087  9.19364607 10.13875207
 10.30004959 10.30007833 10.40367654 10.40368299]
  13 ( 0.333  0.333  0.333)   [-0.30807984 -0.3080722  -0.30593823 -0.30478273 -0.30478121 -0.30397429
 -0.30345095 -0.30317577 -0.30216242 -0.30215602  0.08652002  0.08652217
  0.2027065   0.20270726  0.26701105  0.3274634   0.4402762   0.44028487] [ 0.71009961  0.71010427  0.71778428  0.87755802  0.88310086  0.88311248
  0.96495716  0.96496092  1.04200825  1.05307732  1.17493855  1.17495367
  1.43601027  1.44672458  1.52020647  1.52021056  1.60678226  1.60679863
  1.66288233  1.662897    1.70007951  1.70934874  1.79454887  1.79455148
  1.88086724  1.98953612  1.98953752  1.99962407  2.11594153  2.11594607
  2.16338957  2.28853095  2.29591548  2.29591893  2.5415475   2.54156098
  2.77973519  2.77975969  2.88580703  2.88581081  2.89407567  2.99465721
  3.04605875  3.0460639   3.195313    3.19531783  3.25554209  3.28435511
  3.43835746  3.43836542  5.84384137  5.84384242  9.49708245  9.96415728
 10.18489599 10.18491516 10.32396699 10.32396818]
  14 ( 0.333  0.333  0.667)   [-0.30807979 -0.30807218 -0.30593824 -0.30478279 -0.3047813  -0.30397426
 -0.30345094 -0.3031758  -0.30216235 -0.302156    0.08652011  0.08652208
  0.2027066   0.20270717  0.26701104  0.32746341  0.44027618  0.44028489] [ 0.71009986  0.71010402  0.71778426  0.87755807  0.88310057  0.88311279
  0.96495711  0.96496096  1.04200831  1.05307721  1.17493926  1.17495296
  1.43601036  1.44672449  1.52020682  1.52021019  1.60678198  1.60679888
  1.66288226  1.66289705  1.70007953  1.70934875  1.79454918  1.7945512
  1.88086732  1.98953624  1.98953738  1.99962401  2.1159416   2.11594603
  2.16338941  2.28853108  2.2959155   2.29591894  2.54154762  2.54156094
  2.77973497  2.7797599   2.88580705  2.88581069  2.89407565  2.99465722
  3.04605878  3.04606392  3.1953131   3.1953177   3.2555421   3.28435509
  3.43835736  3.43836551  5.84384136  5.84384244  9.49708247  9.96415725
 10.18489571 10.18491544 10.32396688 10.32396828]
  15 ( 0.333  0.667  0.000)   [-0.30975343 -0.30783741 -0.30588532 -0.30557752 -0.30470084 -0.30356916
 -0.30327753 -0.30309475 -0.30291349 -0.3015297  -0.02850536  0.09889009
  0.19949359  0.26976198  0.34223659  0.40919447  0.4580342   0.51633435] [ 0.6137995   0.69802732  0.76122083  0.78762344  0.82801867  0.94698983
  0.95459624  0.98362545  1.00362093  1.14500501  1.1495904   1.26389465
  1.40211584  1.4266057   1.44301986  1.49399345  1.49936945  1.54986763
  1.58759862  1.60494423  1.66843303  1.72787098  1.73853196  1.83409026
  1.83891233  1.93076334  2.00996528  2.04265044  2.11201319  2.1713756
  2.21194304  2.22784622  2.24628408  2.44468505  2.51909891  2.52615903
  2.63973701  2.70962626  2.76850201  2.90810059  2.95739402  2.97173769
  3.06305665  3.09545988  3.14431556  3.28155399  3.30449805  3.36219453
  3.4412354   3.44674086  5.81168467  5.83946389  9.6688865  10.1122312
 10.13760937 10.35376015 10.57532189 10.61501387]
  16 ( 0.333  0.667  0.333)   [-0.30925644 -0.30829996 -0.30624902 -0.30530121 -0.30486257 -0.30362834
 -0.30326003 -0.30276633 -0.30238899 -0.30207353 -0.00907847  0.04629325
  0.22919908  0.28615105  0.35149159  0.42903345  0.47521006  0.47975855] [ 0.602606    0.65534423  0.72922362  0.81801436  0.84855323  0.89719115
  0.9531205   0.95340129  1.04898175  1.14588873  1.18129762  1.28925988
  1.3275041   1.39806395  1.46208971  1.50520391  1.52495965  1.55732372
  1.59699986  1.63905345  1.69423258  1.75490381  1.78371591  1.8455357
  1.85065624  1.94910658  2.01027178  2.02867926  2.09078771  2.09456501
  2.16718859  2.18482094  2.33302125  2.40235118  2.60817852  2.62164647
  2.646421    2.71822786  2.73674135  2.83665218  2.94499739  2.97680794
  2.99063448  3.08016609  3.15271371  3.23592474  3.30761965  3.35672869
  3.39143249  3.39970411  5.8159888   5.82939381  9.74915318  9.96266295
 10.25148415 10.2675873  10.41874669 10.50564849]
  17 ( 0.333  0.667  0.667)   [-0.30925646 -0.30829993 -0.30624894 -0.30530138 -0.30486262 -0.30362819
 -0.30325988 -0.30276649 -0.30238905 -0.30207348 -0.0090784   0.04629308
  0.22919998  0.28615021  0.35149105  0.42903339  0.47521042  0.47975866] [ 0.6026079   0.65534285  0.72922335  0.81801414  0.84855293  0.8971907
  0.95312073  0.95340217  1.04898058  1.14589037  1.18129789  1.28925972
  1.32750318  1.39806413  1.46209015  1.50520327  1.52495856  1.5573246
  1.59700019  1.63905299  1.69423214  1.75490465  1.78371691  1.84553501
  1.85065585  1.949106    2.01027214  2.02867912  2.09078874  2.09456515
  2.16718827  2.18482082  2.33302078  2.40235175  2.60817836  2.62164682
  2.64641987  2.71822808  2.73674106  2.83665236  2.94499782  2.97680841
  2.99063416  3.08016644  3.15271368  3.23592458  3.30761956  3.35672854
  3.39143256  3.39970445  5.81598887  5.82939374  9.74915296  9.96266307
 10.25148395 10.26758693 10.41874689 10.50564882]
  18 ( 0.667  0.000  0.000)   [-0.30975351 -0.30783754 -0.30588539 -0.30557735 -0.30470084 -0.3035692
 -0.30327746 -0.30309484 -0.30291344 -0.30152958 -0.0285054   0.09889008
  0.19949285  0.26976314  0.3422366   0.40919528  0.45803467  0.5163346 ] [ 0.61379781  0.69802724  0.76122093  0.7876243   0.82801892  0.9469901
  0.95459632  0.98362614  1.00362128  1.14500409  1.1495917   1.26389133
  1.40211724  1.42660614  1.4430188   1.4939938   1.49936918  1.54986972
  1.58759925  1.60494377  1.66843235  1.72787074  1.73853233  1.83408939
  1.83891284  1.93076338  2.00996544  2.04265054  2.11201315  2.17137562
  2.2119429   2.22784659  2.24628533  2.44468527  2.51909868  2.52615974
  2.63973616  2.70962606  2.76850315  2.90810013  2.95739376  2.97173807
  3.06305601  3.09545858  3.14431633  3.28155519  3.30449803  3.36219376
  3.44123695  3.44674056  5.81168465  5.83946381  9.6688866  10.11223112
 10.13761007 10.35376013 10.57532159 10.61501437]
  19 ( 0.667  0.000  0.333)   [-0.30925651 -0.3083001  -0.30624904 -0.30530129 -0.30486239 -0.30362827
 -0.30326005 -0.30276628 -0.30238906 -0.30207342 -0.00907849  0.04629312
  0.22919916  0.28615121  0.35149194  0.42903416  0.47521001  0.47975908] [ 0.60260574  0.65534339  0.72922387  0.81801458  0.84855375  0.89719092
  0.95312103  0.95340085  1.04898141  1.14588852  1.18129893  1.28926097
  1.32750301  1.39806359  1.46208797  1.50520397  1.52495981  1.55732488
  1.59700001  1.63905288  1.69423363  1.75490438  1.7837164   1.8455355
  1.85065648  1.94910602  2.01027112  2.02867939  2.09078822  2.09456554
  2.16718823  2.18482081  2.33302191  2.40235182  2.60817834  2.62164752
  2.64642012  2.71822743  2.73674237  2.83665167  2.94499729  2.97680795
  2.99063481  3.08016668  3.15271278  3.23592401  3.30762113  3.35672868
  3.39143397  3.39970304  5.8159888   5.82939372  9.74915286  9.96266298
 10.25148406 10.26758785 10.41874652 10.50564913]
  20 ( 0.667  0.000  0.667)   [-0.30925655 -0.3083     -0.30624902 -0.30530143 -0.30486248 -0.30362804
 -0.30325994 -0.30276645 -0.3023891  -0.30207341 -0.00907848  0.04629305
  0.22919987  0.28615034  0.35149166  0.42903415  0.47521034  0.47975911] [ 0.60260761  0.65534231  0.72922264  0.81801482  0.84855368  0.89719033
  0.95312105  0.95340213  1.04898093  1.14588915  1.18129916  1.28926076
  1.32750117  1.39806449  1.46209058  1.50520185  1.52495972  1.55732489
  1.59699997  1.63905247  1.69423314  1.75490481  1.78371722  1.8455346
  1.85065656  1.94910605  2.01027205  2.02867929  2.09078855  2.09456524
  2.16718821  2.18482087  2.3330217   2.40235215  2.60817775  2.62164763
  2.64641995  2.71822781  2.73674225  2.83665171  2.94499772  2.97680815
  2.9906346   3.08016682  3.15271205  3.23592438  3.30762105  3.35672771
  3.39143415  3.39970369  5.81598882  5.82939371  9.74915324  9.96266293
 10.25148374 10.26758768 10.41874656 10.50564929]
  21 ( 0.667  0.333  0.000)   [-0.30975343 -0.30783741 -0.30588532 -0.30557752 -0.30470084 -0.30356916
 -0.30327753 -0.30309475 -0.30291349 -0.3015297  -0.02850536  0.09889009
  0.19949359  0.26976198  0.34223659  0.40919447  0.4580342   0.51633435] [ 0.6137995   0.69802732  0.76122083  0.78762344  0.82801867  0.94698983
  0.95459624  0.98362545  1.00362093  1.14500501  1.1495904   1.26389465
  1.40211584  1.4266057   1.44301986  1.49399345  1.49936945  1.54986763
  1.58759862  1.60494423  1.66843303  1.72787098  1.73853196  1.83409026
  1.83891233  1.93076334  2.00996528  2.04265044  2.11201319  2.1713756
  2.21194304  2.22784622  2.24628408  2.44468505  2.51909891  2.52615903
  2.63973701  2.70962626  2.76850201  2.90810059  2.95739402  2.97173769
  3.06305665  3.09545988  3.14431556  3.28155399  3.30449805  3.36219453
  3.4412354   3.44674086  5.81168467  5.83946389  9.6688865  10.1122312
 10.13760937 10.35376015 10.57532189 10.61501387]
  22 ( 0.667  0.333  0.333)   [-0.30925646 -0.30829993 -0.30624894 -0.30530138 -0.30486262 -0.30362819
 -0.30325988 -0.30276649 -0.30238905 -0.30207348 -0.0090784   0.04629308
  0.22919998  0.28615021  0.35149105  0.42903339  0.47521042  0.47975866] [ 0.6026079   0.65534285  0.72922335  0.81801414  0.84855293  0.8971907
  0.95312073  0.95340217  1.04898058  1.14589037  1.18129789  1.28925972
  1.32750318  1.39806413  1.46209015  1.50520327  1.52495856  1.5573246
  1.59700019  1.63905299  1.69423214  1.75490465  1.78371691  1.84553501
  1.85065585  1.949106    2.01027214  2.02867912  2.09078874  2.09456515
  2.16718827  2.18482082  2.33302078  2.40235175  2.60817836  2.62164682
  2.64641987  2.71822808  2.73674106  2.83665236  2.94499782  2.97680841
  2.99063416  3.08016644  3.15271368  3.23592458  3.30761956  3.35672854
  3.39143256  3.39970445  5.81598887  5.82939374  9.74915296  9.96266307
 10.25148395 10.26758693 10.41874689 10.50564882]
  23 ( 0.667  0.333  0.667)   [-0.30925644 -0.30829996 -0.30624902 -0.30530121 -0.30486257 -0.30362834
 -0.30326003 -0.30276633 -0.30238899 -0.30207353 -0.00907847  0.04629325
  0.22919908  0.28615105  0.35149159  0.42903345  0.47521006  0.47975855] [ 0.602606    0.65534423  0.72922362  0.81801436  0.84855323  0.89719115
  0.9531205   0.95340129  1.04898175  1.14588873  1.18129762  1.28925988
  1.3275041   1.39806395  1.46208971  1.50520391  1.52495965  1.55732372
  1.59699986  1.63905345  1.69423258  1.75490381  1.78371591  1.8455357
  1.85065624  1.94910658  2.01027178  2.02867926  2.09078771  2.09456501
  2.16718859  2.18482094  2.33302125  2.40235118  2.60817852  2.62164647
  2.646421    2.71822786  2.73674135  2.83665218  2.94499739  2.97680794
  2.99063448  3.08016609  3.15271371  3.23592474  3.30761965  3.35672869
  3.39143249  3.39970411  5.8159888   5.82939381  9.74915318  9.96266295
 10.25148415 10.2675873  10.41874669 10.50564849]
  24 ( 0.667  0.667  0.000)   [-0.3079979  -0.30798288 -0.30719706 -0.3041786  -0.30417353 -0.30408472
 -0.30327508 -0.30289969 -0.30287896 -0.30190679  0.07754418  0.07754736
  0.24466595  0.24749647  0.2475008   0.36171946  0.36173719  0.37738359] [ 0.62204891  0.84758107  0.84758613  0.88124047  0.88126295  0.91662526
  0.91663532  0.91789163  1.0584216   1.12337544  1.12340947  1.18269033
  1.35511983  1.4590883   1.51469671  1.51473078  1.55535508  1.57272872
  1.57274314  1.61995251  1.68339124  1.68340899  1.81309729  1.81310457
  1.97788916  2.0265223   2.02652539  2.07389299  2.0738977   2.1022761
  2.13462811  2.26858665  2.26860039  2.39724739  2.45684058  2.45684685
  2.79995273  2.81225616  2.81226834  2.97116122  2.97117071  3.01730447
  3.0237201   3.02372426  3.25226196  3.28875542  3.28876873  3.31396874
  3.44188138  3.44189363  5.85110917  5.85111087  9.19364607 10.13875207
 10.30004959 10.30007833 10.40367654 10.40368299]
  25 ( 0.667  0.667  0.333)   [-0.30807979 -0.30807218 -0.30593824 -0.30478279 -0.3047813  -0.30397426
 -0.30345094 -0.3031758  -0.30216235 -0.302156    0.08652011  0.08652208
  0.2027066   0.20270717  0.26701104  0.32746341  0.44027618  0.44028489] [ 0.71009986  0.71010402  0.71778426  0.87755807  0.88310057  0.88311279
  0.96495711  0.96496096  1.04200831  1.05307721  1.17493926  1.17495296
  1.43601036  1.44672449  1.52020682  1.52021019  1.60678198  1.60679888
  1.66288226  1.66289705  1.70007953  1.70934875  1.79454918  1.7945512
  1.88086732  1.98953624  1.98953738  1.99962401  2.1159416   2.11594603
  2.16338941  2.28853108  2.2959155   2.29591894  2.54154762  2.54156094
  2.77973497  2.7797599   2.88580705  2.88581069  2.89407565  2.99465722
  3.04605878  3.04606392  3.1953131   3.1953177   3.2555421   3.28435509
  3.43835736  3.43836551  5.84384136  5.84384244  9.49708247  9.96415725
 10.18489571 10.18491544 10.32396688 10.32396828]
  26 ( 0.667  0.667  0.667)   [-0.30807984 -0.3080722  -0.30593823 -0.30478273 -0.30478121 -0.30397429
 -0.30345095 -0.30317577 -0.30216242 -0.30215602  0.08652002  0.08652217
  0.2027065   0.20270726  0.26701105  0.3274634   0.4402762   0.44028487] [ 0.71009961  0.71010427  0.71778428  0.87755802  0.88310086  0.88311248
  0.96495716  0.96496092  1.04200825  1.05307732  1.17493855  1.17495367
  1.43601027  1.44672458  1.52020647  1.52021056  1.60678226  1.60679863
  1.66288233  1.662897    1.70007951  1.70934874  1.79454887  1.79455148
  1.88086724  1.98953612  1.98953752  1.99962407  2.11594153  2.11594607
  2.16338957  2.28853095  2.29591548  2.29591893  2.5415475   2.54156098
  2.77973519  2.77975969  2.88580703  2.88581081  2.89407567  2.99465721
  3.04605875  3.0460639   3.195313    3.19531783  3.25554209  3.28435511
  3.43835746  3.43836542  5.84384137  5.84384242  9.49708245  9.96415728
 10.18489599 10.18491516 10.32396699 10.32396818]
nelec by numeric integration = 36.00022297101071
    CPU time for vxc     42.13 sec, wall time      1.46 sec
    CPU time for get_j     68.34 sec, wall time      2.43 sec
    CPU time for vj and vk     68.35 sec, wall time      2.43 sec
Ewald components = 6.77773183084737, -128.779455527716, 5.42224205397643
E1 = (-88.24465828850677+2.340998288030796e-17j)  Ecoul = 62.091381842513606  Exc = -25.224511168588382
cycle= 2 E= -167.957269257473  delta_E= 1.06  |g|= 12.7  |ddm|= 25.6
    CPU time for cycle= 2    116.39 sec, wall time      4.09 sec
HOMO = 0.356619902469  LUMO = 0.479600430713
     k-point                  mo_energy
   0 ( 0.000  0.000  0.000)   [-0.2226323  -0.19419    -0.14228905 -0.14149378 -0.1414836  -0.1392133
 -0.13920922 -0.13243181 -0.13240792 -0.12906723 -0.12903678 -0.079293
  0.10268132  0.3187034   0.31871119  0.3550534   0.35661842  0.3566199 ] [ 0.47960043  0.54783422  0.73637041  0.74521829  0.74522147  0.77613556
  0.81714388  0.81716309  1.10599912  1.1060474   1.1685765   1.27279552
  1.27280893  1.31996887  1.32002196  1.33120099  1.33786074  1.46033509
  1.48194601  1.48196622  1.56402211  1.64656795  1.64658802  1.93616623
  1.93617176  1.99085425  1.99086176  1.99522607  2.04488446  2.0448899
  2.17089111  2.27157473  2.29772803  2.31434742  2.38029606  2.38030147
  2.48548709  2.48549538  2.57362639  2.64192689  2.66082087  2.66083445
  2.95844885  2.95844976  3.07766255  3.23367104  3.29211031  3.29215285
  3.33476503  3.33477101  5.98406979  6.00690308 10.30206423 10.33253247
 10.33253932 10.4134812  10.41349485 10.61733622]
   1 ( 0.000  0.000  0.333)   [-0.21257695 -0.19784185 -0.14118574 -0.1411767  -0.14003494 -0.14002894
 -0.13739207 -0.13135315 -0.13132801 -0.12968147 -0.12965315 -0.11033309
  0.16514014  0.27796301  0.3278311   0.3278374   0.3467911   0.34679425] [ 0.5335442   0.55502701  0.71529002  0.72336477  0.75728422  0.75728672
  0.79210674  0.79211961  1.14183424  1.14188297  1.21844227  1.23030825
  1.23035492  1.29892453  1.35919436  1.35920752  1.363195    1.41942517
  1.45345877  1.45347868  1.68300593  1.68303163  1.71329167  1.77460061
  1.77461998  1.90914854  2.06977424  2.0697788   2.19074875  2.19074922
  2.27573445  2.28201498  2.30339724  2.36853083  2.36853282  2.38215479
  2.4641759   2.46418052  2.56717428  2.64158808  2.67643855  2.67645002
  2.831672    2.83167444  2.98043886  3.10459189  3.30388186  3.3039148
  3.32459385  3.32460354  5.98529304  5.99572207 10.2848738  10.32531238
 10.32531615 10.36059294 10.36059899 10.45287695]
   2 ( 0.000  0.000  0.667)   [-0.21257695 -0.19784185 -0.14118574 -0.1411767  -0.14003494 -0.14002894
 -0.13739207 -0.13135315 -0.13132801 -0.12968147 -0.12965315 -0.11033309
  0.16514014  0.27796301  0.3278311   0.3278374   0.3467911   0.34679425] [ 0.5335442   0.55502701  0.71529002  0.72336477  0.75728422  0.75728672
  0.79210674  0.79211961  1.14183424  1.14188297  1.21844227  1.23030825
  1.23035492  1.29892453  1.35919436  1.35920752  1.363195    1.41942517
  1.45345877  1.45347868  1.68300593  1.68303163  1.71329167  1.77460061
  1.77461998  1.90914854  2.06977424  2.0697788   2.19074875  2.19074922
  2.27573445  2.28201498  2.30339724  2.36853083  2.36853282  2.38215479
  2.4641759   2.46418052  2.56717428  2.64158808  2.67643855  2.67645002
  2.831672    2.83167444  2.98043886  3.10459189  3.30388186  3.3039148
  3.32459385  3.32460354  5.98529304  5.99572207 10.2848738  10.32531238
 10.32531615 10.36059294 10.36059899 10.45287695]
   3 ( 0.000  0.333  0.000)   [-0.19951584 -0.19013784 -0.1396485  -0.13905983 -0.13604824 -0.1339781
 -0.1337767  -0.13268168 -0.13077701 -0.12841615 -0.11447907 -0.05810168
  0.14255494  0.18135198  0.21711144  0.27026721  0.31139257  0.32944708] [ 0.57782769  0.60461495  0.66468946  0.70654369  0.77298393  0.78357949
  0.84955323  0.8824582   0.91512518  1.11808404  1.13050823  1.25266237
  1.35349645  1.38494036  1.3856834   1.44181606  1.442048    1.47707451
  1.53904162  1.57914118  1.6514779   1.71108264  1.73093983  1.82303427
  1.82582561  1.8634673   1.99406099  2.00050877  2.07249212  2.15131102
  2.1656753   2.24203165  2.2426582   2.40424715  2.45213632  2.46986677
  2.54440277  2.63175824  2.75883218  2.78624806  2.8140929   2.83504335
  2.93164802  2.97343942  3.00177827  3.11753543  3.15201357  3.22789186
  3.30804432  3.33303556  5.98657375  6.01225498  9.76975645 10.21732519
 10.24269616 10.46252319 10.69018114 10.72985983]
   4 ( 0.000  0.333  0.333)   [-0.19526544 -0.19066816 -0.1398236  -0.13787722 -0.13773095 -0.13514257
 -0.13350452 -0.13210458 -0.13033584 -0.12918022 -0.10599368 -0.07910177
  0.14640879  0.17957539  0.24252379  0.28356115  0.30890893  0.31290455] [ 0.56637828  0.60677669  0.66643145  0.68899807  0.76578498  0.79232663
  0.80920774  0.85807596  0.974567    1.07341464  1.16614096  1.27341623
  1.31230909  1.353264    1.39399044  1.43318723  1.45414427  1.46831894
  1.55090287  1.6295602   1.67380228  1.76028105  1.76841853  1.82080696
  1.8489477   1.94690231  1.96081195  2.00072524  2.05354465  2.07830304
  2.13836008  2.17950764  2.29528432  2.34410624  2.53702025  2.57916432
  2.6000424   2.650611    2.72632025  2.72664443  2.78619969  2.84170228
  2.84203569  2.92378074  3.02238518  3.0880447   3.15620505  3.2183488
  3.25295251  3.26883988  5.99050658  6.00287777  9.84940855 10.06493222
 10.35737089 10.37528565 10.52966998 10.61822193]
   5 ( 0.000  0.333  0.667)   [-0.19526549 -0.19066811 -0.13982333 -0.13787737 -0.13773094 -0.13514255
 -0.13350453 -0.13210466 -0.13033599 -0.12918011 -0.1059938  -0.0791017
  0.14640952  0.17957456  0.24252352  0.28356111  0.30890921  0.31290462] [ 0.56637942  0.60677578  0.66643071  0.68899859  0.76578468  0.79232727
  0.80920726  0.85807652  0.974565    1.07341698  1.16614114  1.27341589
  1.31230992  1.35326294  1.39399104  1.43318621  1.45414371  1.46831928
  1.55090345  1.6295595   1.6738022   1.76028132  1.7684192   1.82080693
  1.84894771  1.94690081  1.96081246  2.00072522  2.05354576  2.07830258
  2.13835993  2.17950788  2.295284    2.34410717  2.53701988  2.57916397
  2.60004188  2.65061054  2.72632068  2.72664493  2.78619989  2.84170157
  2.84203603  2.92378103  3.02238453  3.0880453   3.15620517  3.2183488
  3.25295264  3.26883976  5.99050663  6.00287771  9.84940884 10.06493187
 10.35737138 10.37528567 10.5296696  10.61822189]
   6 ( 0.000  0.667  0.000)   [-0.19951584 -0.19013784 -0.1396485  -0.13905983 -0.13604824 -0.1339781
 -0.1337767  -0.13268168 -0.13077701 -0.12841615 -0.11447907 -0.05810168
  0.14255494  0.18135198  0.21711144  0.27026721  0.31139257  0.32944708] [ 0.57782769  0.60461495  0.66468946  0.70654369  0.77298393  0.78357949
  0.84955323  0.8824582   0.91512518  1.11808404  1.13050823  1.25266237
  1.35349645  1.38494036  1.3856834   1.44181606  1.442048    1.47707451
  1.53904162  1.57914118  1.6514779   1.71108264  1.73093983  1.82303427
  1.82582561  1.8634673   1.99406099  2.00050877  2.07249212  2.15131102
  2.1656753   2.24203165  2.2426582   2.40424715  2.45213632  2.46986677
  2.54440277  2.63175824  2.75883218  2.78624806  2.8140929   2.83504335
  2.93164802  2.97343942  3.00177827  3.11753543  3.15201357  3.22789186
  3.30804432  3.33303556  5.98657375  6.01225498  9.76975645 10.21732519
 10.24269616 10.46252319 10.69018114 10.72985983]
   7 ( 0.000  0.667  0.333)   [-0.19526549 -0.19066811 -0.13982333 -0.13787737 -0.13773094 -0.13514255
 -0.13350453 -0.13210466 -0.13033599 -0.12918011 -0.1059938  -0.0791017
  0.14640952  0.17957456  0.24252352  0.28356111  0.30890921  0.31290462] [ 0.56637942  0.60677578  0.66643071  0.68899859  0.76578468  0.79232727
  0.80920726  0.85807652  0.974565    1.07341698  1.16614114  1.27341589
  1.31230992  1.35326294  1.39399104  1.43318621  1.45414371  1.46831928
  1.55090345  1.6295595   1.6738022   1.76028132  1.7684192   1.82080693
  1.84894771  1.94690081  1.96081246  2.00072522  2.05354576  2.07830258
  2.13835993  2.17950788  2.295284    2.34410717  2.53701988  2.57916397
  2.60004188  2.65061054  2.72632068  2.72664493  2.78619989  2.84170157
  2.84203603  2.92378103  3.02238453  3.0880453   3.15620517  3.2183488
  3.25295264  3.26883976  5.99050663  6.00287771  9.84940884 10.06493187
 10.35737138 10.37528567 10.5296696  10.61822189]
   8 ( 0.000  0.667  0.667)   [-0.19526544 -0.19066816 -0.1398236  -0.13787722 -0.13773095 -0.13514257
 -0.13350452 -0.13210458 -0.13033584 -0.12918022 -0.10599368 -0.07910177
  0.14640879  0.17957539  0.24252379  0.28356115  0.30890893  0.31290455] [ 0.56637828  0.60677669  0.66643145  0.68899807  0.76578498  0.79232663
  0.80920774  0.85807596  0.974567    1.07341464  1.16614096  1.27341623
  1.31230909  1.353264    1.39399044  1.43318723  1.45414427  1.46831894
  1.55090287  1.6295602   1.67380228  1.76028105  1.76841853  1.82080696
  1.8489477   1.94690231  1.96081195  2.00072524  2.05354465  2.07830304
  2.13836008  2.17950764  2.29528432  2.34410624  2.53702025  2.57916432
  2.6000424   2.650611    2.72632025  2.72664443  2.78619969  2.84170228
  2.84203569  2.92378074  3.02238518  3.0880447   3.15620505  3.2183488
  3.25295251  3.26883988  5.99050658  6.00287777  9.84940855 10.06493222
 10.35737089 10.37528565 10.52966998 10.61822193]
   9 ( 0.333  0.000  0.000)   [-0.19951726 -0.19014653 -0.13967139 -0.13904165 -0.13604457 -0.13397203
 -0.13377009 -0.13270481 -0.13076985 -0.12839637 -0.11448001 -0.0581104
  0.14255511  0.18136459  0.21712612  0.27027486  0.31138466  0.32945195] [ 0.57780972  0.60457332  0.66468433  0.70653618  0.77301624  0.78358274
  0.84956432  0.88247004  0.91513327  1.11807218  1.13054001  1.25264115
  1.35351967  1.38495847  1.38571167  1.4418096   1.44205499  1.47707371
  1.53898604  1.5791742   1.65148465  1.71108306  1.730952    1.82302212
  1.82585538  1.86346895  1.9940654   2.00048619  2.0724796   2.15129825
  2.16566722  2.24204544  2.24267818  2.40425422  2.45213729  2.46987603
  2.5443972   2.63175203  2.75885127  2.78624004  2.81411727  2.83506279
  2.93165099  2.9734188   3.00178944  3.11755189  3.15200205  3.22786099
  3.30807409  3.33303612  5.98657409  6.01225574  9.76974209 10.21731966
 10.2426938  10.46253764 10.69018667 10.72984905]
  10 ( 0.333  0.000  0.333)   [-0.1952688  -0.19067542 -0.13983935 -0.1378821  -0.13771436 -0.13513224
 -0.13351212 -0.13210831 -0.13032669 -0.12916471 -0.10599837 -0.07910945
  0.14641504  0.17958116  0.2425324   0.28356821  0.30890731  0.31291033] [ 0.56636506  0.60674472  0.66641732  0.68898834  0.76581146  0.79234037
  0.80921221  0.85808548  0.97455508  1.07339842  1.16617201  1.27344235
  1.31230896  1.3532902   1.39400273  1.4331857   1.45414762  1.46832322
  1.55088622  1.62957251  1.67383042  1.76028226  1.76843713  1.82078636
  1.84896617  1.94689096  1.96079548  2.00071999  2.05355727  2.07828421
  2.13835865  2.17950425  2.29530062  2.34411056  2.53700594  2.57917187
  2.60005164  2.65060293  2.72633466  2.72664345  2.78620242  2.84172001
  2.84204417  2.92379377  3.02237238  3.08804572  3.15622705  3.21832316
  3.25298028  3.26883206  5.99050708  6.00287845  9.84938383 10.06491298
 10.35739148 10.37528227 10.5296853  10.61821445]
  11 ( 0.333  0.000  0.667)   [-0.19526884 -0.19067539 -0.13983931 -0.13788206 -0.13771429 -0.13513234
 -0.13351203 -0.13210848 -0.13032662 -0.12916473 -0.10599847 -0.07910935
  0.14641427  0.17958202  0.24253256  0.28356823  0.30890724  0.31291029] [ 0.56636256  0.60674673  0.66641892  0.68898752  0.76581227  0.79233892
  0.80921241  0.85808529  0.97455549  1.07339803  1.16617177  1.27344259
  1.31231086  1.35328859  1.39400101  1.43318705  1.45414728  1.4683237
  1.55088618  1.62957305  1.67383094  1.76028227  1.76843632  1.82078699
  1.84896591  1.94689111  1.9607945   2.00072003  2.05355673  2.07828474
  2.13835867  2.17950408  2.29530093  2.3441101   2.537007    2.57917195
  2.60005162  2.65060267  2.72633457  2.72664303  2.78620221  2.84172031
  2.84204377  2.92379366  3.02237304  3.08804558  3.15622707  3.21832386
  3.2529801   3.26883162  5.99050707  6.00287845  9.84938338 10.06491306
 10.35739189 10.37528246 10.52968523 10.61821427]
  12 ( 0.333  0.333  0.000)   [-0.19060778 -0.19060039 -0.14148526 -0.13433897 -0.13431758 -0.133541
 -0.13300778 -0.13300052 -0.13124982 -0.12969145 -0.0626558  -0.06264686
  0.16425813  0.16426084  0.16733975  0.24926969  0.24928087  0.25945632] [ 0.62211427  0.66675077  0.6667584   0.72591939  0.76647653  0.76650099
  0.85681288  0.85683993  0.90521873  1.12139991  1.12143425  1.17315055
  1.32938928  1.43776667  1.44881869  1.44882863  1.52694866  1.52699876
  1.5405771   1.58272036  1.61174469  1.61177037  1.80550739  1.80551251
  1.98941178  2.03195016  2.03195719  2.05317993  2.05318628  2.07156249
  2.1248478   2.21791638  2.2179301   2.41036565  2.46140312  2.46141148
  2.62203394  2.75170181  2.75170383  2.83379803  2.83381347  2.85435479
  2.89075067  2.89075308  3.07313982  3.14419491  3.14421638  3.14660903
  3.35192147  3.35192893  6.02285466  6.02285612  9.28999626 10.24698112
 10.40726983 10.40729906 10.51475354 10.51476322]
  13 ( 0.333  0.333  0.333)   [-0.18945069 -0.18944681 -0.13908894 -0.13669384 -0.13668809 -0.13451392
 -0.13148959 -0.1313346  -0.13130355 -0.13130165 -0.0623108  -0.06230617
[...]
  0.62094287  0.64929034  0.71737322  0.76043521  0.82727805  0.82115908
  0.89140028  0.9267366   0.97515581  1.17050921  1.20323762  1.31858342
  1.41710617  1.45299889  1.45684036  1.52975509  1.52217207  1.56308747
  1.62883188  1.66316636  1.70904357  1.78652596  1.82086785  1.91966513
  1.93561779  1.9837566   2.11565947  2.11823041  2.18919527  2.26106153
  2.29196748  2.35416619  2.38728408  2.55171651  2.64265494  2.63464113
  2.72243864  2.81801863  2.91719573  2.94356408  2.93154917  2.95351753
  3.10951081  3.14111231  3.13734208  3.29579046  3.32910751  3.45029535
  3.48827281  3.54587165  6.41746981  6.43421881 10.31979997 10.77054838
 10.77647702 11.03376524 11.27925053 11.26007822]
  GW mo_energy @ k7 =
[-0.17939251 -0.15711699 -0.03772673 -0.03500902 -0.03329181 -0.02898731
 -0.02723818 -0.02486292 -0.02133674 -0.01930194 -0.05757155 -0.04424295
  0.12304841  0.16081295  0.22378235  0.2683627   0.30194468  0.3047949
  0.60553358  0.65065709  0.71991503  0.74191019  0.81832863  0.84109327
  0.84941932  0.90153576  1.02924264  1.12527227  1.23976644  1.35043051
  1.372598    1.41950978  1.47090385  1.50858245  1.5314814   1.53932801
  1.64210453  1.70828739  1.76226837  1.84250109  1.86724266  1.92327068
  1.94991651  2.06328519  2.07990238  2.11588381  2.18523093  2.19556433
  2.25834559  2.29261007  2.44373653  2.49381027  2.70817077  2.74835204
  2.77191408  2.82722557  2.88312646  2.90657109  2.9316862   2.98436625
  2.96270649  3.04715239  3.22665247  3.25953102  3.3376291   3.40781631
  3.43426412  3.44995355  6.41600734  6.42534142 10.38614126 10.61684076
 10.91628943 10.91412344 11.09849353 11.14694694]
  GW mo_energy @ k8 =
[-0.17939255 -0.15711705 -0.03772671 -0.0350088  -0.0332918  -0.02898737
 -0.02723858 -0.02486267 -0.02133652 -0.01930207 -0.05757148 -0.04424302
  0.12304799  0.1608137   0.22378188  0.2683627   0.30194484  0.3047949
  0.60553367  0.65065686  0.7199143   0.74191141  0.81832822  0.84109319
  0.84941916  0.90153597  1.0292434   1.12527168  1.2397657   1.3504311
  1.3725977   1.41951027  1.4709113   1.50858224  1.53148322  1.53932235
  1.64210398  1.70828463  1.76226806  1.84250321  1.86724303  1.92327087
  1.94991647  2.06328453  2.07990541  2.11588663  2.18523599  2.19556431
  2.25834516  2.2926102   2.44373652  2.49381036  2.70817077  2.74835326
  2.77191457  2.82723112  2.88312621  2.90658016  2.93168481  2.98442304
  2.96270319  3.04715231  3.22663628  3.25953079  3.33762963  3.40781429
  3.43426425  3.44995333  6.41602943  6.42531564 10.38614135 10.61684043
 10.91628988 10.91413969 11.09849558 11.14694707]
  GW mo_energy @ k9 =
[-0.19386913 -0.15065671 -0.03698009 -0.03545926 -0.03168034 -0.02702226
 -0.02736563 -0.02568126 -0.02211844 -0.01794258 -0.05682937 -0.02364483
  0.11446825  0.15534396  0.20205048  0.25192282  0.30483284  0.3255175
  0.62093503  0.64928239  0.71737392  0.76043008  0.82728593  0.82115991
  0.89140218  0.9267369   0.97515838  1.17050945  1.20324243  1.3185819
  1.41710542  1.4530072   1.45683265  1.52975014  1.52217172  1.56309545
  1.6288207   1.66317279  1.70903989  1.78652211  1.82086938  1.919657
  1.93562244  1.9837458   2.11566237  2.11823973  2.1891946   2.26105281
  2.29196519  2.35416776  2.38728301  2.55171791  2.64266162  2.63463999
  2.72243724  2.81804229  2.91719795  2.94353922  2.931514    2.95360473
  3.10949606  3.14110573  3.13734969  3.29579561  3.3291072   3.4501484
  3.48827781  3.54586828  6.41750442  6.43420542 10.31978163 10.77055516
 10.77645102 11.03376415 11.27922551 11.26007645]
  GW mo_energy @ k10 =
[-0.1793915  -0.15710918 -0.03773345 -0.03501345 -0.03328973 -0.02898485
 -0.0272412  -0.02485352 -0.02133637 -0.01930042 -0.05757665 -0.0442499
  0.12304982  0.16081369  0.22378459  0.26836591  0.30194355  0.30479813
  0.60552964  0.65064806  0.71991243  0.74190686  0.81833377  0.8410959
  0.84941995  0.90153614  1.02924206  1.1252701   1.23976826  1.35043312
  1.37260112  1.41951735  1.47088074  1.50858087  1.53148548  1.5393409
  1.64210914  1.70830945  1.76227538  1.84249548  1.86724398  1.92327135
  1.9499211   2.063284    2.0799094   2.11603266  2.18522062  2.1955663
  2.25834744  2.29260698  2.44373868  2.49381249  2.70816804  2.74832757
  2.77191635  2.82722623  2.8831375   2.90657692  2.93167808  2.98434152
  2.96276542  3.04717271  3.22662841  3.25952499  3.33763395  3.40778973
  3.43426788  3.44995066  6.41594365  6.42535851 10.38613604 10.61684546
 10.91628719 10.91412045 11.09849062 11.14693607]
  GW mo_energy @ k11 =
[-0.17939137 -0.1571093  -0.03773358 -0.03501319 -0.03328974 -0.02898494
 -0.02724111 -0.02485373 -0.02133619 -0.01930054 -0.05757675 -0.04424977
  0.12304935  0.16081448  0.22378416  0.2683659   0.30194369  0.30479814
  0.60552945  0.65064813  0.7199118   0.74190802  0.81833377  0.84109541
  0.84941979  0.90153634  1.0292424   1.12526992  1.23976738  1.35043393
  1.37260093  1.4195173   1.47088628  1.50858068  1.53148736  1.53933388
  1.64210843  1.70830538  1.76227533  1.84249755  1.86724439  1.92327153
  1.94992086  2.06328345  2.07991269  2.11603593  2.18522254  2.19556632
  2.25834692  2.29260706  2.44373873  2.49381234  2.70816701  2.7483285
  2.77191647  2.8272305   2.8831375   2.90658396  2.9316753   2.98439009
  2.96276188  3.04717308  3.22661179  3.25952414  3.33763446  3.4077954
  3.43426781  3.44994951  6.41591235  6.42537222 10.38614576 10.61684646
 10.91628654 10.91411444 11.09848955 11.14693727]
  GW mo_energy @ k12 =
[-0.15392555 -0.15393035 -0.04010019 -0.02767633 -0.02767249 -0.02641344
 -0.02588356 -0.0258824  -0.02300521 -0.02032161 -0.02690744 -0.02689715
  0.13835572  0.13835707  0.13610729  0.23092189  0.23092624  0.24344891
  0.66649614  0.72339367  0.72339539  0.79033994  0.82237715  0.82238154
  0.8861937   0.88619889  0.96912086  1.182687    1.18269393  1.2258424
  1.40722521  1.51536569  1.52514258  1.5251481   1.63365484  1.63366462
  1.62239526  1.66592631  1.6868343   1.6867993   1.91510835  1.91511276
  2.09421054  2.13773782  2.13773237  2.17548639  2.17547541  2.20930162
  2.23651406  2.34481571  2.34481717  2.56077493  2.62283764  2.62283993
  2.79953021  2.92433052  2.92432931  3.00561646  3.00561503  3.00848551
  3.05314623  3.05314876  3.24825928  3.32338634  3.32338672  3.32222959
  3.54786345  3.54786113  6.43501767  6.43504726  9.8186718  10.78285498
 10.94810823 10.94809711 11.09047083 11.09047303]
  GW mo_energy @ k13 =
[-0.15179659 -0.15179832 -0.03608808 -0.03227641 -0.03227572 -0.02794016
 -0.0234976  -0.02353124 -0.02280411 -0.02280242 -0.02676916 -0.02676424
  0.11291774  0.11291879  0.15799054  0.21001778  0.27773328  0.27773538
  0.68950343  0.68950421  0.71548147  0.77566355  0.78007707  0.78007712
  0.92983723  0.92983736  0.99404346  1.10210281  1.17721106  1.17721409
  1.43335096  1.47033805  1.52669044  1.52669519  1.62405803  1.6240676
  1.7461133   1.74611818  1.77474133  1.76942779  1.89139645  1.89139643
  1.98427032  2.09246247  2.09246495  2.10661676  2.21499563  2.21499889
  2.28926546  2.38374041  2.38374051  2.43926837  2.70721213  2.70721449
  2.87283424  2.87283541  2.89033636  2.96058668  2.9605912   2.98636282
  3.06611305  3.06611446  3.25535526  3.25575765  3.25575724  3.29130046
  3.49614388  3.4961452   6.43139837  6.43151217 10.11326835 10.37050048
 10.84964894 10.84965086 10.96676712 10.96677086]
  GW mo_energy @ k14 =
[-0.1517966  -0.15179831 -0.03608809 -0.03227638 -0.03227574 -0.02794011
 -0.02349759 -0.02353131 -0.0228041  -0.02280241 -0.0267691  -0.0267643
  0.11291774  0.11291878  0.15799054  0.21001778  0.2777333   0.27773536
  0.68950345  0.6895042   0.71548147  0.77566356  0.78007708  0.7800771
  0.92983713  0.92983746  0.99404349  1.10210281  1.17721131  1.17721388
  1.43335102  1.4703381   1.52668965  1.5266972   1.62405778  1.62406743
  1.74611311  1.74611823  1.77474134  1.76943304  1.89139648  1.8913964
  1.98427031  2.09246258  2.09246484  2.10661675  2.21499576  2.21499892
  2.28926528  2.38374039  2.38374088  2.4392686   2.70721207  2.70721451
  2.87283335  2.87283441  2.89033677  2.96058775  2.9605925   2.98636278
  3.06611257  3.06611456  3.25535528  3.25575776  3.25575731  3.29130043
  3.49614405  3.49614466  6.43138755  6.43147054 10.11321541 10.37067703
 10.84964946 10.8496503  10.96677751 10.9667754 ]
  GW mo_energy @ k15 =
[-0.19386916 -0.15065672 -0.03698008 -0.03545935 -0.03168027 -0.02702229
 -0.02736558 -0.02568121 -0.02211843 -0.01794259 -0.05682934 -0.02364476
  0.1144684   0.15534374  0.20205049  0.25192264  0.30483275  0.32551744
  0.62093518  0.64928261  0.71737385  0.76043018  0.8272857   0.82115978
  0.89140227  0.92673685  0.97515807  1.17050981  1.20324208  1.31858255
  1.41710513  1.45300577  1.45683184  1.52975036  1.52217122  1.56309553
  1.62882195  1.6631727   1.70903871  1.78652244  1.82086933  1.91965715
  1.93562243  1.98374582  2.11566258  2.11823961  2.18919471  2.26105259
  2.2919652   2.35416803  2.38728266  2.55171784  2.64266224  2.63463995
  2.72243721  2.81804261  2.91719864  2.94353798  2.93151319  2.95360338
  3.1094962   3.14110695  3.13735059  3.2957949   3.32910714  3.45015496
  3.48827788  3.54586795  6.41755032  6.43422416 10.31980034 10.77055366
 10.77645611 11.03376775 11.27925419 11.26007637]
  GW mo_energy @ k16 =
[-0.17939136 -0.1571093  -0.03773357 -0.03501313 -0.03328979 -0.02898499
 -0.02724114 -0.02485368 -0.02133619 -0.01930056 -0.05757677 -0.04424966
  0.12304935  0.16081442  0.22378411  0.26836576  0.30194372  0.30479803
  0.60552945  0.6506483   0.71991181  0.74190801  0.81833369  0.8410955
  0.84941969  0.90153627  1.02924252  1.12526998  1.23976735  1.35043354
  1.37260103  1.41951733  1.47088879  1.50858053  1.53148715  1.53933387
  1.64210841  1.70830533  1.76227496  1.84249713  1.86724444  1.92327151
  1.94992087  2.06328356  2.07991105  2.11602493  2.18522303  2.1955663
  2.25834693  2.29260695  2.4437385   2.49381224  2.70816742  2.74832903
  2.77191685  2.82723167  2.88313723  2.90658357  2.93167747  2.9844044
  2.96276059  3.04717364  3.22661852  3.25952483  3.33763409  3.40779486
  3.43426755  3.44995027  6.41605063  6.42537676 10.38613595 10.6168452
 10.91628646 10.91411356 11.09848903 11.14693756]
  GW mo_energy @ k17 =
[-0.17939151 -0.15710914 -0.03773343 -0.03501344 -0.03328981 -0.0289849
 -0.02724111 -0.02485354 -0.02133641 -0.01930045 -0.05757655 -0.04424991
  0.12304982  0.16081372  0.22378452  0.26836575  0.30194353  0.30479804
  0.60552965  0.65064824  0.71991249  0.74190682  0.81833365  0.84109604
  0.84941984  0.90153606  1.02924188  1.12527048  1.23976776  1.35043313
  1.37260099  1.41951709  1.47087874  1.50858147  1.53148507  1.5393397
  1.64210889  1.70830969  1.76227534  1.84249577  1.8672439   1.92327127
  1.94992096  2.06328414  2.07990962  2.11603199  2.18522129  2.19556601
  2.25834752  2.29260695  2.44373844  2.49381229  2.70816777  2.74832801
  2.77191661  2.82722488  2.88313715  2.90657459  2.9316811   2.98434953
  2.96276363  3.04717353  3.2266286   3.2595246   3.33763369  3.40779274
  3.43426747  3.4499505   6.41598551  6.42533666 10.38612975 10.6168458
 10.91628707 10.91410245 11.0984915  11.14693655]
  GW mo_energy @ k18 =
[-0.19386913 -0.15065673 -0.0369801  -0.03545926 -0.03168036 -0.02702226
 -0.02736563 -0.02568127 -0.02211845 -0.01794256 -0.05682938 -0.02364484
  0.11446825  0.15534396  0.20205048  0.25192282  0.30483284  0.3255175
  0.62093503  0.64928239  0.71737392  0.76043008  0.82728593  0.82115991
  0.89140218  0.9267369   0.97515838  1.17050946  1.2032424   1.3185819
  1.41710552  1.45300579  1.45683602  1.5297501   1.52217162  1.56309498
  1.6288225   1.66317281  1.70904009  1.78652212  1.82086938  1.91965701
  1.93562242  1.98374596  2.11566247  2.11823939  2.18919463  2.26105277
  2.29196517  2.35416771  2.38728301  2.55171793  2.64266174  2.63463996
  2.72243721  2.81804025  2.91719796  2.94353801  2.93151355  2.95360649
  3.1094952   3.14110603  3.1373498   3.29579561  3.32910711  3.45015263
  3.48827767  3.5458703   6.41732926  6.43430841 10.31976596 10.77055412
 10.77646241 11.03376451 11.27923191 11.26007619]
  GW mo_energy @ k19 =
[-0.17939135 -0.1571093  -0.03773358 -0.0350132  -0.03328974 -0.02898494
 -0.02724111 -0.02485374 -0.0213362  -0.01930053 -0.05757675 -0.04424977
  0.12304935  0.16081448  0.22378416  0.2683659   0.30194369  0.30479814
  0.60552945  0.65064813  0.71991181  0.74190802  0.81833377  0.84109541
  0.84941979  0.90153634  1.0292424   1.1252699   1.23976792  1.35043407
  1.37260076  1.41951732  1.47088652  1.50858068  1.53148739  1.53933388
  1.64210838  1.70830461  1.76227531  1.84249727  1.86724441  1.92327153
  1.94992081  2.0632834   2.07991221  2.11602602  2.18522178  2.19556629
  2.25834723  2.29260714  2.44373873  2.49381238  2.70816729  2.74832865
  2.77191685  2.82723077  2.88313755  2.90658418  2.93167606  2.98440257
  2.96276269  3.04717325  3.22661706  3.25952421  3.33763437  3.40779444
  3.4342679   3.44994983  6.41602382  6.42526996 10.38614933 10.61684337
 10.91628632 10.91410162 11.09848773 11.14693708]
  GW mo_energy @ k20 =
[-0.17939152 -0.15710912 -0.03773345 -0.03501346 -0.03328973 -0.02898484
 -0.02724119 -0.02485352 -0.02133638 -0.01930043 -0.05757666 -0.04424989
  0.12304981  0.16081369  0.22378459  0.26836591  0.30194355  0.30479813
  0.60552964  0.65064806  0.71991243  0.74190686  0.81833377  0.8410959
  0.84941995  0.90153614  1.02924207  1.1252701   1.23976822  1.35043314
  1.3726003   1.41951734  1.47088171  1.50858089  1.53148563  1.53934038
  1.64210909  1.70831009  1.7622754   1.84249607  1.867244    1.92327137
  1.94992119  2.063284    2.07990968  2.11604074  2.18522119  2.1955664
  2.25834734  2.2926069   2.44373865  2.49381247  2.70816775  2.74832748
  2.77191637  2.82722634  2.88313755  2.90657678  2.93167761  2.98434742
  2.9627664   3.04717252  3.22662949  3.25952465  3.33763398  3.40779046
  3.43426803  3.4499505   6.41596501  6.42539718 10.38613193 10.6168448
 10.91628718 10.91411827 11.09849432 11.14693593]
  GW mo_energy @ k21 =
[-0.19386916 -0.15065672 -0.03698008 -0.03545934 -0.03168028 -0.0270223
 -0.02736557 -0.0256812  -0.02211847 -0.0179426  -0.05682934 -0.02364476
  0.1144684   0.15534374  0.20205049  0.25192264  0.30483275  0.32551744
  0.62093518  0.64928261  0.71737385  0.76043018  0.8272857   0.82115979
  0.89140227  0.92673685  0.97515807  1.17050981  1.20324207  1.31858253
  1.41710518  1.45300347  1.45683327  1.52975042  1.52217116  1.56309594
  1.62882127  1.66317265  1.70903773  1.78652251  1.82086935  1.91965711
  1.93562241  1.98374586  2.11566242  2.11823964  2.18919476  2.26105259
  2.29196519  2.35416805  2.38728253  2.55171781  2.64266209  2.63463984
  2.72243717  2.81804353  2.91719851  2.94353851  2.93151272  2.95360357
  3.1094962   3.14110651  3.13735095  3.29579506  3.32910714  3.45015302
  3.48827785  3.54586849  6.4174435   6.43423039 10.31979248 10.7705552
 10.77646213 11.03376543 11.27923246 11.26007654]
  GW mo_energy @ k22 =
[-0.17939151 -0.15710918 -0.03773343 -0.03501345 -0.03328981 -0.0289849
 -0.02724111 -0.02485353 -0.02133639 -0.01930045 -0.05757655 -0.04424991
  0.12304982  0.16081372  0.22378452  0.26836575  0.30194353  0.30479804
  0.60552965  0.65064824  0.71991249  0.74190682  0.81833365  0.84109604
  0.84941984  0.90153606  1.02924188  1.12527048  1.23976784  1.35043328
  1.37260074  1.41951711  1.47087895  1.50858144  1.53148509  1.53933914
  1.64210888  1.7083094   1.76227528  1.84249604  1.86724389  1.9232713
  1.94992098  2.0632841   2.07990919  2.11603735  2.18521965  2.19556625
  2.2583477   2.29260689  2.44373852  2.49381228  2.7081678   2.74832796
  2.77191623  2.82722468  2.8831371   2.90657185  2.93168147  2.98435751
  2.96276328  3.04717311  3.22662663  3.25952434  3.33763364  3.40779346
  3.43426744  3.44995063  6.41597008  6.42532448 10.38613913 10.61685061
 10.91628751 10.91411058 11.09849161 11.14693566]
  GW mo_energy @ k23 =
[-0.17939137 -0.15710931 -0.03773358 -0.03501312 -0.03328979 -0.02898499
 -0.02724113 -0.02485365 -0.0213362  -0.01930057 -0.05757677 -0.04424967
  0.12304935  0.16081442  0.22378411  0.26836576  0.30194372  0.30479803
  0.60552945  0.6506483   0.71991181  0.74190801  0.81833369  0.8410955
  0.84941969  0.90153627  1.02924253  1.12526997  1.23976762  1.35043342
  1.37260088  1.41951732  1.47088909  1.50858054  1.53148716  1.53933356
  1.64210844  1.7083049   1.76227495  1.84249707  1.86724438  1.92327145
  1.9499208   2.06328357  2.07991229  2.11602164  2.18522153  2.19556636
  2.25834724  2.29260703  2.44373852  2.49381225  2.70816734  2.74832908
  2.77191678  2.82723074  2.88313704  2.90658334  2.93167991  2.98440051
  2.96276113  3.0471736   3.22661474  3.25952456  3.33763411  3.40779501
  3.43426754  3.44995024  6.415956    6.42531151 10.38615069 10.61684676
 10.91628586 10.9141189  11.09848986 11.14693704]
  GW mo_energy @ k24 =
[-0.15392555 -0.15393035 -0.04010018 -0.02767634 -0.02767249 -0.02641342
 -0.02588355 -0.0258824  -0.0230052  -0.0203216  -0.02690744 -0.02689715
  0.13835572  0.13835707  0.13610729  0.23092189  0.23092624  0.24344891
  0.66649614  0.72339367  0.72339539  0.79033994  0.82237715  0.82238155
  0.88619369  0.88619889  0.96912085  1.182687    1.18269383  1.22584262
  1.40722586  1.51536567  1.52514253  1.52514805  1.63365432  1.63366549
  1.62239521  1.66592624  1.68683458  1.68680549  1.91510923  1.9151125
  2.09421056  2.13773765  2.13773237  2.17548638  2.1754754   2.20930163
  2.2365139   2.34481504  2.34481679  2.56077512  2.62283765  2.62283998
  2.79953049  2.92433084  2.92432948  3.00561629  3.00561555  3.00848583
  3.05314642  3.05314886  3.24825916  3.32338593  3.32338653  3.32222956
  3.54786245  3.54786217  6.43509059  6.43511654  9.81865097 10.7829236
 10.94810551 10.9480918  11.09047107 11.09047347]
  GW mo_energy @ k25 =
[-0.1517966  -0.15179831 -0.03608809 -0.03227638 -0.03227573 -0.0279401
 -0.02349758 -0.02353133 -0.0228041  -0.02280241 -0.0267691  -0.0267643
  0.11291775  0.11291878  0.15799054  0.21001778  0.2777333   0.27773536
  0.68950345  0.6895042   0.71548147  0.77566356  0.78007708  0.78007711
  0.92983713  0.92983746  0.99404349  1.10210279  1.17721129  1.17721387
  1.43335102  1.47033808  1.52669059  1.52669704  1.62405835  1.62406762
  1.74611334  1.74611823  1.77474133  1.76941786  1.89139624  1.89139647
  1.98427033  2.0924626   2.09246483  2.1066167   2.2149955   2.21499904
  2.28926532  2.3837404   2.38374056  2.43926856  2.70721205  2.70721444
  2.87283373  2.872835    2.89033632  2.96058776  2.96059145  2.98636247
  3.06611205  3.06611515  3.25535522  3.25575769  3.25575696  3.29130045
  3.49614427  3.49614472  6.43139431  6.4314396  10.11311821 10.37066203
 10.84965053 10.84964883 10.96676757 10.96677679]
  GW mo_energy @ k26 =
[-0.15179659 -0.15179832 -0.03608808 -0.03227642 -0.03227577 -0.02794016
 -0.02349759 -0.02353125 -0.02280411 -0.02280242 -0.02676916 -0.02676424
  0.11291774  0.11291879  0.15799054  0.21001778  0.27773328  0.27773538
  0.68950343  0.68950421  0.71548147  0.77566355  0.78007707  0.78007712
  0.92983723  0.92983736  0.99404347  1.10210281  1.17721105  1.1772141
  1.43335097  1.47033809  1.52669031  1.52669678  1.62405793  1.62406739
  1.7461133   1.74611815  1.77474137  1.76942191  1.89139633  1.89139633
  1.98427033  2.09246251  2.09246497  2.10661677  2.21499585  2.2149985
  2.28926542  2.38374039  2.3837406   2.43926856  2.70721202  2.70721445
  2.87283458  2.87283387  2.89033621  2.96058767  2.96059078  2.98636341
  3.06611277  3.06611424  3.25535529  3.25575807  3.25575743  3.29130045
  3.49614392  3.49614517  6.43139926  6.43145143 10.11311993 10.37043576
 10.84965037 10.84965195 10.96676177 10.96677323]

WARN: GW QP energies may not be sorted from min to max

    CPU time for GW 264971.84 sec, wall time   9228.52 sec
DFT HOMO energy: 13.0441230345425
DFT LUMO energy: 9.92160636203124
DFT Band gap at Gamma point [eV]: 3.122516672511261
GW HOMO energy: 14.02920106820444
GW LUMO energy: 9.830508236553946
GW Band gap at Gamma point [eV]: 4.198692831650493
