Job real_ts.01 started on hpc-21-14.cm.cluster at Thu Apr 20 12:05:09 2023
jobid: hpc-21-14-0-64418cda

  +--------------------------------------------------------------------+
  |  Jaguar version 11.7, release 121                                  |
  |                                                                    |
  |  Copyright Schrodinger, Inc.                                       |
  |  All Rights Reserved.                                              |
  |                                                                    |
  |  The following have contributed to Jaguar (listed alphabetically): |
  |  Mike Beachy, Art Bochevarov, Dale Braden, Yixiang Cao,            |
  |  Alan Chien, Chris Cortis, Rich Friesner, Bill Goddard,            |
  |  Hod Greeley, Tom Hughes, Leif Jacobson, Jean-Marc Langlois,       |
  |  Daniel Levine, Daniel Mainz, Rob Murphy, Dean Philipp,            |
  |  Tom Pollard, Murco Ringnalda, Mark Watson, Haoyu Yu.              |
  |                                                                    |
  |  Use of this program should be acknowledged in publications as:    |
  |                                                                    |
  |  Jaguar, version 11.7, Schrodinger, Inc., New York, NY, 2022.      |
  |                                                                    |
  |  A. D. Bochevarov, E. Harder, T. F. Hughes, J. R. Greenwood,       |
  |  D. A. Braden, D. M. Philipp, D. Rinaldo, M. D. Halls,             |
  |  J. Zhang, R. A. Friesner, "Jaguar: A High-Performance Quantum     |
  |  Chemistry Software Program with Strengths in Life and Materials   |
  |  Sciences", Int. J. Quantum Chem., 2013, 113(18), 2110-2142.       |
  +--------------------------------------------------------------------+
  
  start of program pre
  
  Job name: real_ts.01
  Executables used: /central/groups/wag/programs/Schrodinger_2022_3/jaguar-v11.7/bin/Linux-x86_64
  Temporary files : /central/scratch/musgrave/pkozlows/real_ts.01
  Maestro file (input):  real_ts.01.mae
  Maestro file (output): real_ts.02.mae
  
 Contents of input file: &gen section only
 ----------------Contents start----------------
&gen
nofail=1
basis=6-31g**
igeopt=2
dftname=pbe-d3
ifreq=1
&
 -----------------Contents end-----------------
 
  basis set:               6-31g**                         
  net molecular charge:    0
  multiplicity:            1
  
  number of basis functions....          130
  
 Input geometry:
                                   angstroms
  atom               x                 y                 z
  O1           -2.9884452940      0.8003488187     -0.3841361955 
  C3           -1.7687707736      1.0711949850     -0.6922020886 
  C5           -0.6917225822      0.9065067574      0.1832083568 
  C7           -0.8445493517     -1.3828451003      0.3429038312 
  H5            0.3213168398      1.1428542429     -0.1541339804 
  H6           -0.8724389857      0.9431164171      1.2589269078 
  C10          -2.1003304217     -1.6596089887     -0.2067066525 
  H8            0.0682712790     -1.7230362904     -0.1550215882 
  H9           -0.7523074842     -1.2273174062      1.4208822010 
  C13          -3.2260788803     -1.0044090724      0.3007386640 
  H11          -1.5369560530      1.2622440922     -1.7643499467 
  H12          -4.2090079349     -1.1500320496     -0.1528799695 
  H13          -3.2402279470     -0.6946602134      1.3499861105 
  H14          -2.1497439978     -2.0344687579     -1.2359453743 
   
  principal moments of inertia:
        amu*angstrom^2:               106.86857               134.08330               208.53947
                g*cm^2:          1.77459407E-38          2.22650528E-38          3.46287893E-38
   
  rotational constants:
               cm^(-1):      0.15774170      0.12572505      0.08083664
                   GHz:      4.72897715      3.76914212      2.42342137
   
  Molecular weight:      84.06 amu
   
  Stoichiometry: C5H8O
  Molecular Point Group: C1      
  Point Group used: C1
  
  detected            2  molecular fragments
 
Number of optimization coordinates:    36
Number of independent coordinates:     36
Number of non-redundant coordinates:   36
Number of frozen coordinates:           0
Number of harmonic constraints:         0
 
Number of geometric degrees of freedom:    36
Maximum geometric degrees of freedom:      36
 " " " " " excluding dummy atoms:          36
 
  nuclear repulsion energy.......           227.836162616 hartrees
 
 Non-default options chosen:
   Running in no-fail mode
   HF Initial guess: read from Jaguar .in file
   SCF calculation type: DFT(pbe-d3)                 
   DFT=PBE(X+LC)+PW91 (PBE-D3)
   Transition state optimization
   Geometry will be optimized in redundant internal coordinates
   Culot/Fletcher trust radius adjustment
      initial trust radius:  0.100
   P-RFO level-shifting used
   Vibrational frequencies and related properties will be computed
      from analytic second derivatives
   IR intensities will be computed
   Thermochemical properties will be computed
   Scaling standard convergence criteria by a factor of   1.00
   Initial Hessian: read from Jaguar .in file in cartesian coordinates
   Mixed Murtagh-Sargent/Powell Hessian-updating used
  
 Temporary integer options set:
     73=  2
  
  end of program pre
   
 Time(pre)  user:        3.0  user+sys:        3.0  wallclock:        4.5
  
  start of program onee
  
  smallest eigenvalue of S:    2.940E-03
  number of canonical orbitals.....          130
  end of program onee
   
 Time(onee)  user:        0.3  user+sys:        0.3  wallclock:        0.8
  
  start of program hfig
  
  initial wavefunction read from .in file
  reading wavefunction from input file
          33  orbitals read from .in file
  virtual orbitals input are ignored
  Largest Normalization error   2.022409568226444E-008
  RMS Normalization error   4.528528132066244E-009
 
  Irreducible     Total no   No of occupied orbitals 
  representation  orbitals   Shell_1  Shell_2    ...
  No Symm          130         23
  ------------------------
  Orbital occupation/shell    1.000
 
  end of program hfig
   
 Time(hfig)  user:        0.3  user+sys:        0.3  wallclock:        0.4
  
  start of program probe
  
  end of program probe
   
 Time(probe)  user:        0.2  user+sys:        0.2  wallclock:        0.3
  
  start of program grid
  
   grid     grid set  grid #  grid sym
  ------    --------  ------  --------
  coarse        0        0        1
  medium        2        1        1
  fine          0        0        1
  ultrafine     4        2        1
  charge        0        0        1
  gradient      4        2        1
  density       0        0        1
  DFT-fine    -11        3        1
  DFT-med.    -10        4        1
  DFT-grad    -12        5        1
  DFT-der2     -8        6        1
  DFT-cphf     -9        7        1
  LMP2-enrg     4        2        1
  LMP2-grad     2        1        1
  DFT-cphf2   -15        8        1
  PBF-dens      0        0        1
  plotting      0        0        1
  Rel-grad    -17        0        1
  
  number of gridpoints: 
     atom        O1       C3       C5       C7       H5       H6      C10
  grid # 1      119       94       84       85      116      113       92
  grid # 2      481      334      308      309      452      435      340
  grid # 3     4304     4304     4304     4304     4304     4304     4304
  grid # 4     1192     1192     1192     1192     1192     1192     1192
  grid # 5     5226     5226     5226     5226     5226     5226     5226
  grid # 6    23504    12650    12650    12650    13718    13718    12650
  grid # 7      714      688      688      688      744      744      688
  grid # 8      360      358      358      358      382      382      358
   
  number of gridpoints: 
     atom        H8       H9      C13      H11      H12      H13      H14
  grid # 1      116      113       82      117      117      113      117
  grid # 2      450      433      302      458      448      440      451
  grid # 3     4304     4304     4304     4304     4304     4304     4304
  grid # 4     1192     1192     1192     1192     1192     1192     1192
  grid # 5     5226     5226     5226     5226     5226     5226     5226
  grid # 6    13718    13718    12650    13718    13718    13718    13718
  grid # 7      744      744      688      744      744      744      744
  grid # 8      382      382      358      382      382      382      382
   
  number of gridpoints: 
     atom     total
  grid # 1     1478
  grid # 2     5641
  grid # 3    60256
  grid # 4    16688
  grid # 5    73164
  grid # 6   196498
  grid # 7    10106
  grid # 8     5206
   
  end of program grid
   
 Time(grid)  user:        1.6  user+sys:        1.6  wallclock:        1.9
  
  start of program rwr
  
  end of program rwr
   
 Time(rwr)  user:        0.8  user+sys:        0.8  wallclock:        1.0
  
  start of program scf
  
 number of electrons..........         46
 number of alpha electrons....         23
 number of beta electrons.....         23
 number of orbitals, total....        130
 number of doubly-occ'd orbs..         23
 number of open shell orbs....          0
 number of occupied orbitals..         23
 number of virtual orbitals...        107
 number of hamiltonians.......          1
 number of shells.............          1
 SCF type: DFT=PBE(X+LC)+PW91 (PBE-D3)
 Energy computed with NOPS off.
 Convergence Criterion:
    Energy (econv):       1.00E-05
    RMS density (dconv):  5.00E-06
  
       i  u  d  i  g                   
       t  p  i  c  r                                 RMS    maximum
       e  d  i  u  i                       energy  density   DIIS  
       r  t  s  t  d       total energy    change  change    error 
  
etot    1  N  N  2  U    -270.12249277525           2.6E-05  1.5E-04
etot    2  N  Y  2  U    -270.12249283493  6.0E-08  8.5E-06  4.4E-05
etot    3  N  Y  2  U    -270.12249210679 -7.3E-07  6.6E-06  1.4E-04
etot    4  N  Y  2  U    -270.12249292043  8.1E-07  3.1E-07  4.7E-06
etot    5  N  N  2  U    -270.12249292199  1.6E-09  0.0E+00  0.0E+00
 
  Computing the dispersion energy correction and its gradients...
  
  
 Energy components, in hartrees:
   (A)  Nuclear repulsion............     227.83616261621
   (E)  Total one-electron terms.....    -817.01697156030
   (I)  Total two-electron terms.....     319.05831602210
   (J)    Coulomb....................     357.24040553615
   (K)    Exchange+Correlation.......     -38.18208951405
   (L)  Electronic energy............    -497.95865553820  (E+I)
   (N0) D3 correction................      -0.00589738289
   (N)  Total energy.................    -270.12839030489  (A+L+N0)
   (O)  Gas phase energy.............    -270.12839030489
  
 SCFE: SCF energy: DFT(pbe-d3)      -270.12839030489 hartrees   iterations:   5
  
 
 HOMO energy:    -0.17823
 LUMO energy:    -0.06183
 
  Orbital energies (hartrees): 
   -18.76230    -9.94297    -9.92952    -9.92380    -9.90016    -9.89759
    -0.91362    -0.71923    -0.65664    -0.60348    -0.51549    -0.47666
    -0.43456    -0.39990    -0.39498    -0.37301    -0.34400    -0.33809
    -0.32275    -0.31034    -0.24065    -0.22032    -0.17823    -0.06183
    -0.03101     0.06494     0.07194     0.08421     0.11237     0.11984
     0.15320     0.15446     0.16229
 
  end of program scf
   
 Time(scf)  user:        7.3  user+sys:        7.3  wallclock:       11.8
  
  start of program der1a
  
  end of program der1a
   
 Time(der1a)  user:        0.3  user+sys:        0.3  wallclock:        0.9
  
  start of program rwr
  
  end of program rwr
   
 Time(rwr)  user:        0.8  user+sys:        0.8  wallclock:        1.2
  
  start of program der1b
  
   
  forces (hartrees/bohr) : total     
   
 atom  label           x              y              z
 ---- --------   -------------  -------------  -------------
    1 O1          5.913800E-04   4.820757E-03  -1.881681E-03
    2 C3          5.376976E-06  -1.081673E-05   1.902024E-04
    3 C5         -1.718145E-04  -2.301617E-03  -5.268226E-05
    4 C7          2.574519E-05   2.328388E-03  -1.257798E-04
    5 H5          4.776115E-05  -1.072198E-05  -4.403527E-06
    6 H6         -6.493490E-07   1.257053E-05   1.675950E-05
    7 C10         1.414378E-04   7.400701E-05  -1.805178E-05
    8 H8          3.652513E-05   4.883704E-05  -1.027006E-05
    9 H9          3.261232E-05  -2.114777E-05   1.603342E-06
   10 C13        -6.091709E-04  -4.993040E-03   1.757038E-03
   11 H11         6.263702E-05   3.743630E-05   1.383301E-05
   12 H12        -7.816583E-05  -9.831366E-06  -3.760053E-06
   13 H13         3.087433E-05   6.154707E-05  -3.069408E-05
   14 H14         1.263187E-05   2.679093E-05   2.556388E-05
 -------------   -------------  -------------  -------------
     total        1.271812E-04   6.315920E-05  -1.223220E-04
   
  end of program der1b
   
 Time(der1b)  user:        1.7  user+sys:        1.7  wallclock:        2.2
  
  start of program geopt
  
 ----------------------------------------------------------------------------
  Geometry optimization step   1
  Total energy:      -270.12839030489 hartrees
 ----------------------------------------------------------------------------
  reading input hessian of dimension    42
   in five columns format
  
  TS search will follow eigenvector   1 on this iteration
  
  Selected vector:  eigenvalue    -1.12041E-01

  1)         O1-C13(  7)  0.58992
       H8-C10-C7-H9( 30)  0.38422
        H5-C3-C5-H6( 25) -0.33426
         O1-C13-C10(  8) -0.26079
          C3-O1-C13( 11) -0.20555
             C7-C10( 21)  0.19794
  
  
  Level shifts adjusted to satisfy step-size constraints
   Step size:    0.1004347
   Cos(theta):   0.5987562
   Final level shift:  -6.3756360E-03
  
  gradient maximum:        9.2556E-03 .  (  4.5000E-04 )
  gradient rms:            2.6301E-03 .  (  3.0000E-04 )
  displacement maximum:    6.3766E-02 .  (  1.8000E-03 )
  displacement rms:        1.6739E-02 .  (  1.2000E-03 )
  
  predicted energy change:   1.9232E-04
  step size:     0.10043
  trust radius:  0.10000
  
  molecular structure not yet converged...
  
  center of mass moved by:
     x:    -2.0089E-05     y:     6.9829E-06     z:    -7.3195E-04
  
  new geometry: 
                                   angstroms
  atom               x                 y                 z
  O1           -2.9901694856      0.7985900653     -0.3843577400 
  C3           -1.7651375028      1.0750294054     -0.6900321291 
  C5           -0.6905448797      0.9430985356      0.1821911104 
  C7           -0.8496555311     -1.4184752841      0.3464669455 
  H5            0.3207426785      1.1827547121     -0.1571183120 
  H6           -0.8649074258      0.9433504660      1.2593142037 
  C10          -2.0990849376     -1.6651707022     -0.2108635862 
  H8            0.0655223912     -1.7593602994     -0.1459568145 
  H9           -0.7590682702     -1.2232811670      1.4175510555 
  C13          -3.2246919487     -1.0012406736      0.2999846306 
  H11          -1.5367452116      1.2629884361     -1.7626750033 
  H12          -4.2091585943     -1.1451086762     -0.1509276236 
  H13          -3.2359828579     -0.7022615889      1.3524278823 
  H14          -2.1519615761     -2.0410776929     -1.2393114603 
   
  nuclear repulsion energy.......           227.179195050 hartrees
  -------------------------------------------------
 /  end of geometry optimization iteration   1   /
 -------------------------------------------------
   
  end of program geopt
   
 Time(geopt)  user:        3.6  user+sys:        3.6  wallclock:        6.7
  
  start of program onee
  
  smallest eigenvalue of S:    2.969E-03
  number of canonical orbitals.....          130
  end of program onee
   
 Time(onee)  user:        0.3  user+sys:        0.3  wallclock:        0.6
  
  start of program probe
  
  end of program probe
   
 Time(probe)  user:        0.3  user+sys:        0.3  wallclock:        0.5
  
  start of program grid
  
   grid     grid set  grid #  grid sym
  ------    --------  ------  --------
  coarse        0        0        1
  medium        2        1        1
  fine          0        0        1
  ultrafine     4        2        1
  charge        0        0        1
  gradient      4        2        1
  density       0        0        1
  DFT-fine    -11        3        1
  DFT-med.    -10        4        1
  DFT-grad    -12        5        1
  DFT-der2     -8        6        1
  DFT-cphf     -9        7        1
  LMP2-enrg     4        2        1
  LMP2-grad     2        1        1
  DFT-cphf2   -15        8        1
  PBF-dens      0        0        1
  plotting      0        0        1
  Rel-grad    -17        0        1
  
  number of gridpoints: 
     atom        O1       C3       C5       C7       H5       H6      C10
  grid # 1      119       94       85       85      116      113       93
  grid # 2      481      335      310      308      452      435      338
  grid # 3     4304     4304     4304     4304     4304     4304     4304
  grid # 4     1192     1192     1192     1192     1192     1192     1192
  grid # 5     5226     5226     5226     5226     5226     5226     5226
  grid # 6    23504    12650    12650    12650    13718    13718    12650
  grid # 7      714      688      688      688      744      744      688
  grid # 8      360      358      358      358      382      382      358
   
  number of gridpoints: 
     atom        H8       H9      C13      H11      H12      H13      H14
  grid # 1      116      113       82      117      116      113      117
  grid # 2      450      433      301      457      448      440      452
  grid # 3     4304     4304     4304     4304     4304     4304     4304
  grid # 4     1192     1192     1192     1192     1192     1192     1192
  grid # 5     5226     5226     5226     5226     5226     5226     5226
  grid # 6    13718    13718    12650    13718    13718    13718    13718
  grid # 7      744      744      688      744      744      744      744
  grid # 8      382      382      358      382      382      382      382
   
  number of gridpoints: 
     atom     total
  grid # 1     1479
  grid # 2     5640
  grid # 3    60256
  grid # 4    16688
  grid # 5    73164
  grid # 6   196498
  grid # 7    10106
  grid # 8     5206
   
  end of program grid
   
 Time(grid)  user:        1.8  user+sys:        1.8  wallclock:        2.8
  
  start of program rwr
  
  end of program rwr
   
 Time(rwr)  user:        0.8  user+sys:        0.8  wallclock:        1.1
  
  start of program scf
  
 Energy computed with NOPS off.
 Convergence Criterion:
    Energy (econv):       1.00E-05
    RMS density (dconv):  5.00E-06
  
       i  u  d  i  g                   
       t  p  i  c  r                                 RMS    maximum
       e  d  i  u  i                       energy  density   DIIS  
       r  t  s  t  d       total energy    change  change    error 
  
etot    1  N  N  2  U    -270.12105039461           4.5E-04  3.2E-03
etot    2  Y  Y  6  M    -270.12216364968  1.1E-03  2.3E-04  1.5E-03
etot    3  Y  Y  6  M    -270.12187362164 -2.9E-04  1.6E-04  3.2E-03
etot    4  Y  Y  6  M    -270.12224180871  3.7E-04  3.6E-05  3.5E-04
etot    5  N  Y  2  U    -270.12218426139 -5.8E-05  1.6E-05  3.3E-04
etot    6  N  Y  2  U    -270.12218780836  3.5E-06  4.2E-06  6.8E-05
etot    7  N  N  2  U    -270.12218810853  3.0E-07  0.0E+00  0.0E+00
 
  Computing the dispersion energy correction and its gradients...
  
  
 Energy components, in hartrees:
   (A)  Nuclear repulsion............     227.17919504966
   (E)  Total one-electron terms.....    -815.70646268270
   (I)  Total two-electron terms.....     318.40507952450
   (J)    Coulomb....................     356.58437393081
   (K)    Exchange+Correlation.......     -38.17929440631
   (L)  Electronic energy............    -497.30138315819  (E+I)
   (N0) D3 correction................      -0.00590253213
   (N)  Total energy.................    -270.12809064066  (A+L+N0)
   (O)  Gas phase energy.............    -270.12809064066
  
 SCFE: SCF energy: DFT(pbe-d3)      -270.12809064066 hartrees   iterations:   7
  
 
 HOMO energy:    -0.17900
 LUMO energy:    -0.06589
 
  Orbital energies (hartrees): 
   -18.76197    -9.94077    -9.93296    -9.92313    -9.89986    -9.89739
    -0.91068    -0.72055    -0.65555    -0.60524    -0.51525    -0.47712
    -0.43523    -0.39960    -0.39512    -0.37393    -0.34357    -0.33768
    -0.32374    -0.31045    -0.23853    -0.21977    -0.17900    -0.06589
    -0.02817     0.06300     0.07180     0.08343     0.11227     0.11934
     0.15315     0.15449     0.16183
 
  end of program scf
   
 Time(scf)  user:        7.3  user+sys:        7.3  wallclock:       16.1
  
  start of program der1a
  
  end of program der1a
   
 Time(der1a)  user:        0.4  user+sys:        0.4  wallclock:        0.9
  
  start of program rwr
  
  end of program rwr
   
 Time(rwr)  user:        0.8  user+sys:        0.8  wallclock:        1.1
  
  start of program der1b
  
   
  forces (hartrees/bohr) : total     
   
 atom  label           x              y              z
 ---- --------   -------------  -------------  -------------
    1 O1          1.854350E-04   5.371494E-04  -2.500450E-04
    2 C3         -3.960525E-04   3.001009E-05  -2.388774E-04
    3 C5          3.067137E-04  -2.515178E-04   3.810437E-04
    4 C7          5.623303E-04   3.215331E-04   3.061744E-04
    5 H5          1.317953E-05  -2.878208E-05  -9.730127E-05
    6 H6         -9.722759E-05   4.527406E-05   2.468375E-05
    7 C10        -4.346419E-04   3.579310E-05  -1.889714E-04
    8 H8         -1.493209E-05   1.180310E-05  -1.180943E-04
    9 H9         -7.698092E-05  -2.507946E-05   4.729608E-05
   10 C13        -1.551069E-05  -6.040323E-04   1.611398E-04
   11 H11        -4.626408E-06   5.600860E-05  -4.161378E-07
   12 H12         1.439847E-05  -2.304478E-05  -2.041994E-05
   13 H13         9.387655E-06   2.354310E-05  -2.268599E-05
   14 H14         5.871875E-06  -3.378512E-05   1.686457E-06
 -------------   -------------  -------------  -------------
     total        5.734445E-05   9.487305E-05  -1.478723E-05
   
  end of program der1b
   
 Time(der1b)  user:        1.6  user+sys:        1.6  wallclock:        2.0
  
  start of program geopt
  
 ----------------------------------------------------------------------------
  Geometry optimization step   2
  Total energy:      -270.12809064066 hartrees
 ----------------------------------------------------------------------------
  reading input hessian of dimension    42
   in five columns format
  
  TS search will follow eigenvector   1 on this iteration
  
  Selected vector:  eigenvalue    -1.05609E-01

  1)         O1-C13(  7) -0.61059
       H8-C10-C7-H9( 30) -0.37716
        H5-C3-C5-H6( 25)  0.32657
         O1-C13-C10(  8)  0.26072
          C3-O1-C13( 11)  0.20207
             C7-C10( 21) -0.18388
  
  energy change:           2.9966E-04 .  (  5.0000E-05 )
  gradient maximum:        9.2609E-04 .  (  4.5000E-04 )
  gradient rms:            2.8014E-04 *  (  3.0000E-04 )
  displacement maximum:    8.8020E-03 .  (  1.8000E-03 )
  displacement rms:        2.7267E-03 .  (  1.2000E-03 )
  
  predicted energy change:   3.4278E-06
  step size:     0.01636
  trust radius:  0.14142
  
  molecular structure not yet converged...
  
  center of mass moved by:
     x:     7.1942E-05     y:    -3.5881E-04     z:    -8.1543E-04
  
  new geometry: 
                                   angstroms
  atom               x                 y                 z
  O1           -2.9905168090      0.7971335317     -0.3868896760 
  C3           -1.7646557517      1.0757467572     -0.6901557130 
  C5           -0.6912938201      0.9485164293      0.1836166179 
  C7           -0.8495252561     -1.4236965121      0.3472300160 
  H5            0.3199943225      1.1885047732     -0.1554201193 
  H6           -0.8668416263      0.9439279589      1.2605096261 
  C10          -2.0991315471     -1.6659138200     -0.2106049904 
  H8            0.0647694593     -1.7645414511     -0.1468392603 
  H9           -0.7583534404     -1.2244419742      1.4174043700 
  C13          -3.2239860065     -0.9996693997      0.3005592677 
  H11          -1.5355466731      1.2648233768     -1.7623049530 
  H12          -4.2090367883     -1.1440847165     -0.1488925955 
  H13          -3.2340035586     -0.7006824915      1.3530143943 
  H14          -2.1532486313     -2.0431288039     -1.2384925665 
   
  nuclear repulsion energy.......           227.083992335 hartrees
  -------------------------------------------------
 /  end of geometry optimization iteration   2   /
 -------------------------------------------------
   
  end of program geopt
   
 Time(geopt)  user:        0.3  user+sys:        0.3  wallclock:        0.5
  
  start of program onee
  
  smallest eigenvalue of S:    2.976E-03
  number of canonical orbitals.....          130
  end of program onee
   
 Time(onee)  user:        0.2  user+sys:        0.2  wallclock:        0.4
  
  start of program probe
  
  end of program probe
   
 Time(probe)  user:        0.3  user+sys:        0.3  wallclock:        0.4
  
  start of program grid
  
   grid     grid set  grid #  grid sym
  ------    --------  ------  --------
  coarse        0        0        1
  medium        2        1        1
  fine          0        0        1
  ultrafine     4        2        1
  charge        0        0        1
  gradient      4        2        1
  density       0        0        1
  DFT-fine    -11        3        1
  DFT-med.    -10        4        1
  DFT-grad    -12        5        1
  DFT-der2     -8        6        1
  DFT-cphf     -9        7        1
  LMP2-enrg     4        2        1
  LMP2-grad     2        1        1
  DFT-cphf2   -15        8        1
  PBF-dens      0        0        1
  plotting      0        0        1
  Rel-grad    -17        0        1
  
  number of gridpoints: 
     atom        O1       C3       C5       C7       H5       H6      C10
  grid # 1      119       94       85       86      116      113       93
  grid # 2      481      336      310      309      452      435      339
  grid # 3     4304     4304     4304     4304     4304     4304     4304
  grid # 4     1192     1192     1192     1192     1192     1192     1192
  grid # 5     5226     5226     5226     5226     5226     5226     5226
  grid # 6    23504    12650    12650    12650    13718    13718    12650
  grid # 7      714      688      688      688      744      744      688
  grid # 8      360      358      358      358      382      382      358
   
  number of gridpoints: 
     atom        H8       H9      C13      H11      H12      H13      H14
  grid # 1      116      113       82      117      116      113      117
  grid # 2      450      432      301      457      448      440      452
  grid # 3     4304     4304     4304     4304     4304     4304     4304
  grid # 4     1192     1192     1192     1192     1192     1192     1192
  grid # 5     5226     5226     5226     5226     5226     5226     5226
  grid # 6    13718    13718    12650    13718    13718    13718    13718
  grid # 7      744      744      688      744      744      744      744
  grid # 8      382      382      358      382      382      382      382
   
  number of gridpoints: 
     atom     total
  grid # 1     1480
  grid # 2     5642
  grid # 3    60256
  grid # 4    16688
  grid # 5    73164
  grid # 6   196498
  grid # 7    10106
  grid # 8     5206
   
  end of program grid
   
 Time(grid)  user:        1.5  user+sys:        1.5  wallclock:        1.9
  
  start of program rwr
  
  end of program rwr
   
 Time(rwr)  user:        0.7  user+sys:        0.7  wallclock:        0.9
  
  start of program scf
  
 Energy computed with NOPS off.
 Convergence Criterion:
    Energy (econv):       1.00E-05
    RMS density (dconv):  5.00E-06
  
       i  u  d  i  g                   
       t  p  i  c  r                                 RMS    maximum
       e  d  i  u  i                       energy  density   DIIS  
       r  t  s  t  d       total energy    change  change    error 
  
etot    1  N  N  2  U    -270.12214689594           6.6E-05  5.2E-04
etot    2  Y  Y  6  M    -270.12217718253  3.0E-05  3.2E-05  1.9E-04
etot    3  N  Y  2  U    -270.12216455581 -1.3E-05  2.2E-05  4.6E-04
etot    4  N  Y  2  U    -270.12217244054  7.9E-06  4.3E-06  3.8E-05
etot    5  N  N  2  U    -270.12217248812  4.8E-08  0.0E+00  0.0E+00
 
  Computing the dispersion energy correction and its gradients...
  
  
 Energy components, in hartrees:
   (A)  Nuclear repulsion............     227.08399233506
   (E)  Total one-electron terms.....    -815.51689721624
   (I)  Total two-electron terms.....     318.31073239306
   (J)    Coulomb....................     356.48924244891
   (K)    Exchange+Correlation.......     -38.17851005585
   (L)  Electronic energy............    -497.20616482318  (E+I)
   (N0) D3 correction................      -0.00590172240
   (N)  Total energy.................    -270.12807421052  (A+L+N0)
   (O)  Gas phase energy.............    -270.12807421052
  
 SCFE: SCF energy: DFT(pbe-d3)      -270.12807421052 hartrees   iterations:   5
  
 
 HOMO energy:    -0.17897
 LUMO energy:    -0.06639
 
  Orbital energies (hartrees): 
   -18.76181    -9.94035    -9.93342    -9.92317    -9.90015    -9.89731
    -0.91031    -0.72063    -0.65536    -0.60547    -0.51520    -0.47716
    -0.43532    -0.39955    -0.39509    -0.37407    -0.34363    -0.33756
    -0.32381    -0.31054    -0.23824    -0.21975    -0.17897    -0.06639
    -0.02772     0.06267     0.07170     0.08339     0.11220     0.11931
     0.15300     0.15469     0.16166
 
  end of program scf
   
 Time(scf)  user:        6.6  user+sys:        6.6  wallclock:        8.9
  
  start of program der1a
  
  end of program der1a
   
 Time(der1a)  user:        0.3  user+sys:        0.3  wallclock:        0.7
  
  start of program rwr
  
  end of program rwr
   
 Time(rwr)  user:        0.8  user+sys:        0.8  wallclock:        1.2
  
  start of program der1b
  
   
  forces (hartrees/bohr) : total     
   
 atom  label           x              y              z
 ---- --------   -------------  -------------  -------------
    1 O1          1.773379E-07  -5.093994E-06  -6.854282E-06
    2 C3          1.830617E-05   3.379674E-05   8.165670E-06
    3 C5          1.021352E-05  -3.474822E-05   4.349625E-05
    4 C7          5.461302E-05   6.371182E-05  -1.724896E-05
    5 H5         -1.980435E-05   1.795222E-05   4.262980E-06
    6 H6         -2.811915E-05   1.320466E-05   7.801125E-06
    7 C10        -1.115661E-05   1.146226E-05  -1.027331E-05
    8 H8          1.740464E-05  -1.991862E-06  -8.224865E-07
    9 H9         -1.481808E-05   2.105252E-05   4.654270E-05
   10 C13         1.624617E-05  -2.386398E-05  -1.457546E-05
   11 H11        -3.814417E-06   9.669383E-06  -3.057965E-05
   12 H12        -3.949179E-06  -1.388995E-05  -2.255582E-05
   13 H13        -6.861928E-06   4.553945E-06  -5.189738E-06
   14 H14         1.873005E-05   1.402716E-06  -1.046651E-05
 -------------   -------------  -------------  -------------
     total        4.716719E-05   9.721826E-05  -8.297502E-06
   
  end of program der1b
   
 Time(der1b)  user:        1.7  user+sys:        1.7  wallclock:        1.9
  
  start of program geopt
  
 ----------------------------------------------------------------------------
  Geometry optimization step   3
  Total energy:      -270.12807421052 hartrees
 ----------------------------------------------------------------------------
  reading input hessian of dimension    42
   in five columns format
  reading input hessian of dimension    42
   in five columns format
  
  TS search will follow eigenvector   1 on this iteration
  
  Selected vector:  eigenvalue    -9.88638E-02

  1)         O1-C13(  7)  0.62740
       H8-C10-C7-H9( 30)  0.36795
        H5-C3-C5-H6( 25) -0.31666
         O1-C13-C10(  8) -0.25996
          C3-O1-C13( 11) -0.20035
             C7-C10( 21)  0.17959
  
  energy change:           1.6430E-05 *  (  5.0000E-05 )
  gradient maximum:        1.4009E-04 *  (  4.5000E-04 )
  gradient rms:            4.3644E-05 #  (  3.0000E-04 )
  displacement maximum:    1.7252E-03 *  (  1.8000E-03 )
  displacement rms:        5.7392E-04 *  (  1.2000E-03 )
  
  predicted energy change:  -3.2969E-08
  step size:     0.00344
  trust radius:  0.14142
  
  ********************************************************
  **           Geometry optimization complete           **
  ********************************************************
  
  center of mass moved by:
     x:     0.0000E+00     y:     0.0000E+00     z:     0.0000E+00
  
  final geometry: 
                                   angstroms
  atom               x                 y                 z
  O1           -2.9905168090      0.7971335317     -0.3868896760 
  C3           -1.7646557517      1.0757467572     -0.6901557130 
  C5           -0.6912938201      0.9485164293      0.1836166179 
  C7           -0.8495252561     -1.4236965121      0.3472300160 
  H5            0.3199943225      1.1885047732     -0.1554201193 
  H6           -0.8668416263      0.9439279589      1.2605096261 
  C10          -2.0991315471     -1.6659138200     -0.2106049904 
  H8            0.0647694593     -1.7645414511     -0.1468392603 
  H9           -0.7583534404     -1.2244419742      1.4174043700 
  C13          -3.2239860065     -0.9996693997      0.3005592677 
  H11          -1.5355466731      1.2648233768     -1.7623049530 
  H12          -4.2090367883     -1.1440847165     -0.1488925955 
  H13          -3.2340035586     -0.7006824915      1.3530143943 
  H14          -2.1532486313     -2.0431288039     -1.2384925665 
   
  bond lengths (angstroms):
 O1      -C3      :   1.293186
 C3      -C5      :   1.389882
 C3      -H11     :   1.112540
 C5      -H5      :   1.093272
 C5      -H6      :   1.091117
 C7      -C10     :   1.389736
 C7      -H8      :   1.093716
 C7      -H9      :   1.092377
 C10     -C13     :   1.403734
 C10     -H14     :   1.096254
 C13     -H12     :   1.092331
 C13     -H13     :   1.094146
  
  bond angles:
 C5      -C3      -O1      : 124.396168
 H11     -C3      -O1      : 117.246802
 H11     -C3      -C5      : 117.539787
 H5      -C5      -C3      : 119.954029
 H6      -C5      -C3      : 119.775791
 H6      -C5      -H5      : 117.117420
 H8      -C7      -C10     : 121.065779
 H9      -C7      -C10     : 120.005003
 H9      -C7      -H8      : 115.443906
 C13     -C10     -C7      : 119.448550
 H14     -C10     -C7      : 118.732708
 H14     -C10     -C13     : 117.722771
 H12     -C13     -C10     : 120.667070
 H13     -C13     -C10     : 119.163493
 H13     -C13     -H12     : 115.065490
  
  torsional angles:
 O1      -C3      -C5      -H5      : 178.928788
 O1      -C3      -C5      -H6      : -21.709523
 C7      -C10     -C13     -H12     : 177.499145
 C7      -C10     -C13     -H13     : -28.999038
 H5      -C5      -C3      -H11     :   9.591827
 H6      -C5      -C3      -H11     : 168.953516
 H8      -C7      -C10     -C13     :-167.629188
 H8      -C7      -C10     -H14     : -10.885015
 H9      -C7      -C10     -C13     :  34.388964
 H9      -C7      -C10     -H14     :-168.866862
 H12     -C13     -C10     -H14     :  20.523270
 H13     -C13     -C10     -H14     : 174.025088
  
  
  principal moments of inertia:
        amu*angstrom^2:               106.85823               136.87591               211.12901
                g*cm^2:          1.77442249E-38          2.27287766E-38          3.50587929E-38
   
  rotational constants:
               cm^(-1):      0.15775695      0.12315994      0.07984516
                   GHz:      4.72943442      3.69224220      2.39369759
   
  nuclear repulsion energy.......           227.083992335 hartrees
  -------------------------------------------------
 /  end of geometry optimization iteration   3   /
 -------------------------------------------------
   
  end of program geopt
   
 Time(geopt)  user:        3.3  user+sys:        3.3  wallclock:        4.6
  
  start of program cutabab2
  
  end of program cutabab2
   
 Time(cutabab2)  user:        0.4  user+sys:        0.4  wallclock:        1.8
  
  start of program der2a
  
  end of program der2a
   
 Time(der2a)  user:        0.4  user+sys:        0.4  wallclock:        0.8
  
  start of program der2b
  
  end of program der2b
   
 Time(der2b)  user:       21.9  user+sys:       21.9  wallclock:       22.2
  
  start of program der2nda
  
  Computing the dispersion energy correction, gradient, hessian...
 
  end of program der2nda
   
 Time(der2nda)  user:        0.5  user+sys:        0.5  wallclock:        0.7
  
  start of program der2ndb
  
  end of program der2ndb
   
 Time(der2ndb)  user:       54.6  user+sys:       54.6  wallclock:       55.4
  
  start of program rwr
  
  end of program rwr
   
 Time(rwr)  user:        1.0  user+sys:        1.0  wallclock:        1.7
  
  start of program cphfa
  
       1  vectors produced in CPHF
  
     v    i  j  k  i  g
     e    t  c  c  c  r
     c    e  o  o  u  i
     t    r  r  r  t  d       RMS  
  
     1    1  0  0  6  M     2.0E-02
     1    2  0  0  6  M     1.7E-03
     1    3  0  0  6  M     6.3E-04
     1    4  0  0  6  M     2.8E-04
     1    5  0  0  6  M     7.9E-05
     1    6  0  0  6  M     2.3E-05
  
  
  Atomic Polar Tensors (au): Total
  =========================
  
  APT for atom O1      
  --------------------------------------
       -0.6543       0.1704       0.0278
        0.3407      -0.2606       0.0131
        0.0734       0.0315      -0.3413
  --------------------------------------
  
  APT for atom C3      
  --------------------------------------
        0.4224      -0.2085       0.0032
       -0.0038      -0.1278      -0.0298
       -0.1208      -0.3530       0.5935
  --------------------------------------
  
  APT for atom C5      
  --------------------------------------
        0.0085       0.2028      -0.1360
       -0.0181      -0.3757       0.0160
       -0.0570       0.2834      -0.1312
  --------------------------------------
  
  APT for atom C7      
  --------------------------------------
        0.2700       0.2440      -0.0684
        0.1450       0.4070       0.0239
       -0.0021      -0.0547       0.0756
  --------------------------------------
  
  APT for atom H5      
  --------------------------------------
       -0.0484      -0.0578       0.0257
       -0.0810       0.0726       0.0058
        0.0494       0.0135       0.0343
  --------------------------------------
  
  APT for atom H6      
  --------------------------------------
        0.0210      -0.0174       0.0342
       -0.0302       0.1123       0.0362
        0.0085      -0.0104      -0.0646
  --------------------------------------
  
  APT for atom C10     
  --------------------------------------
       -0.4536      -0.3293       0.0354
       -0.0169      -0.3393       0.0598
        0.1284       0.2180       0.0476
  --------------------------------------
  
  APT for atom H8      
  --------------------------------------
       -0.0295       0.0438       0.0255
        0.0789       0.0254      -0.0198
        0.0387      -0.0029       0.0339
  --------------------------------------
  
  APT for atom H9      
  --------------------------------------
        0.0322       0.0219       0.0184
       -0.0053       0.0179      -0.0331
       -0.0104      -0.0068      -0.0634
  --------------------------------------
  
  APT for atom C13     
  --------------------------------------
        0.3666       0.0466       0.0086
       -0.3104       0.1822      -0.0039
       -0.1245      -0.1262       0.1522
  --------------------------------------
  
  APT for atom H11     
  --------------------------------------
        0.0287      -0.0904       0.0827
       -0.0698       0.0859       0.0173
        0.0465       0.1381      -0.2398
  --------------------------------------
  
  APT for atom H12     
  --------------------------------------
       -0.0427      -0.0237      -0.0212
       -0.0464       0.0541      -0.0163
       -0.0364       0.0005       0.0505
  --------------------------------------
  
  APT for atom H13     
  --------------------------------------
        0.0460      -0.0118      -0.0340
        0.0093       0.0371      -0.0223
        0.0215      -0.0144      -0.0753
  --------------------------------------
  
  APT for atom H14     
  --------------------------------------
        0.0331       0.0093      -0.0018
        0.0081       0.1086      -0.0468
       -0.0152      -0.1165      -0.0720
  --------------------------------------
  
  end of program cphfa
   
 Time(cphfa)  user:       37.7  user+sys:       37.7  wallclock:       38.4
  
  start of program freq
  
   
  Number of frequencies:  36
  harmonic frequencies in cm**-1, reduced masses in amu,
  force constants in mDyne/A, and
  normal modes in cartesian coordinates:          36
  IR intensities in km/mol
  
  vibration #            1         2         3         4         5         6
                 --------- --------- --------- --------- --------- ---------
  frequencies      -401.89    115.06    247.99    289.91    368.97    389.12
  intensities        14.93      4.88     17.63      4.91      6.81      5.02
  reduc. mass         2.85      1.89      2.44      1.97      1.22      1.55
  force const         0.27      0.01      0.09      0.10      0.10      0.14
    O1       X    -0.01831   0.00167  -0.02666   0.04685  -0.02968   0.00027
    O1       Y    -0.11295   0.04560  -0.08351  -0.08668   0.07712   0.00968
    O1       Z     0.02207   0.11868   0.02029   0.04487   0.06093   0.02031
    C3       X     0.01041  -0.02038  -0.03232   0.04616  -0.00911  -0.00192
    C3       Y    -0.00317   0.00147   0.00040  -0.11277  -0.11373   0.03461
    C3       Z     0.02165  -0.01038   0.02732   0.01295  -0.05086   0.03009
    C5       X    -0.00320   0.05350  -0.00103   0.04471  -0.08450   0.01009
    C5       Y     0.12632   0.03104  -0.16868   0.06054  -0.02435  -0.00915
    C5       Z    -0.01099  -0.09958  -0.03425   0.03001   0.03193   0.00915
    C7       X    -0.01854  -0.02749   0.01025  -0.04931   0.06257   0.04104
    C7       Y    -0.13256  -0.01638   0.09581   0.13118  -0.03715   0.04265
    C7       Z     0.00833   0.09575   0.03166  -0.05709  -0.01463  -0.06493
    H5       X    -0.01481   0.03035  -0.01926   0.03858  -0.02521   0.00124
    H5       Y     0.15232  -0.01735  -0.12586   0.02980  -0.15886   0.01956
    H5       Z    -0.02123  -0.20488  -0.05914  -0.01285   0.11705   0.00181
    H6       X     0.03287   0.15061   0.04969   0.05811  -0.22775   0.02904
    H6       Y    -0.04661   0.07359  -0.15955   0.18142   0.11240  -0.01975
    H6       Z    -0.00737  -0.08357  -0.02777   0.03420   0.01229   0.01149
    C10      X     0.01124   0.02910   0.03003  -0.04326   0.04166  -0.01722
    C10      Y    -0.00200  -0.01036   0.05762   0.01999   0.03790  -0.11714
    C10      Z    -0.00944  -0.01918  -0.00228  -0.02337   0.00887   0.11093
    H8       X    -0.01567   0.02272   0.02808  -0.03351   0.02509  -0.02768
    H8       Y    -0.14007  -0.03092   0.08929   0.18793  -0.05988  -0.04217
    H8       Z     0.02033   0.20039   0.06704  -0.06568  -0.07175  -0.13823
    H9       X    -0.00983  -0.13810  -0.03369  -0.05298   0.13730   0.20134
    H9       Y     0.04198   0.05688  -0.00275   0.12370  -0.02064   0.17911
    H9       Z    -0.02624   0.09191   0.05527  -0.05546  -0.02370  -0.10728
    C13      X     0.02787  -0.03328   0.02705  -0.05286   0.02810  -0.03148
    C13      Y     0.15134  -0.05531   0.11304  -0.00061   0.07111   0.03987
    C13      Z    -0.03811  -0.09546  -0.04798  -0.00946  -0.04246  -0.08867
    H11      X    -0.05416  -0.10663  -0.09490   0.06237   0.03002  -0.01452
    H11      Y     0.02825  -0.04273   0.14358  -0.29725  -0.42258   0.10577
    H11      Z     0.02275  -0.03846   0.04349  -0.01622  -0.09576   0.04012
    H12      X     0.01596   0.01752   0.03235  -0.05180   0.05006   0.01889
    H12      Y     0.08496  -0.04665   0.06797  -0.00486   0.02700  -0.04366
    H12      Z     0.00398  -0.20954  -0.04876  -0.01378  -0.07567  -0.17783
    H13      X     0.01417  -0.14694  -0.01728  -0.06802  -0.02558  -0.17199
    H13      Y     0.00449  -0.11884   0.01728  -0.05030   0.05597   0.15194
    H13      Z     0.00679  -0.07977  -0.01802   0.00538  -0.03943  -0.12432
    H14      X    -0.00858   0.12661   0.07346  -0.04676   0.04601  -0.04677
    H14      Y     0.00098  -0.00786   0.12634   0.03446   0.03127  -0.39528
    H14      Z    -0.00919  -0.02549  -0.03011  -0.02856   0.00946   0.21272
  
  vibration #            7         8         9        10        11        12
                 --------- --------- --------- --------- --------- ---------
  frequencies       432.29    509.96    695.85    766.06    825.85    853.58
  intensities         1.24     13.04     14.13     10.65      0.12     29.04
  reduc. mass         1.12      2.20      0.71      0.68      0.28      0.38
  force const         0.12      0.34      0.20      0.24      0.11      0.16
    O1       X     0.00398   0.10338   0.00669   0.01650  -0.01925   0.03097
    O1       Y    -0.03063  -0.04564  -0.01242  -0.05100   0.01848  -0.03009
    O1       Z    -0.02428   0.08065   0.01054  -0.00261  -0.02542  -0.00157
    C3       X     0.00510   0.02961   0.00623  -0.00641   0.00676  -0.02937
    C3       Y    -0.00028   0.06331  -0.01125   0.09803  -0.00205   0.06371
    C3       Z     0.00544  -0.11493   0.00065  -0.00182   0.00761   0.00901
    C5       X     0.02540  -0.07083   0.00588  -0.02956  -0.00566  -0.00980
    C5       Y     0.00999  -0.00485  -0.02907   0.03112  -0.00400  -0.06869
    C5       Z    -0.01365  -0.02470  -0.00068   0.02179   0.00147   0.01350
    C7       X     0.07023  -0.01785   0.02134   0.00074   0.00496   0.01686
    C7       Y    -0.04679   0.01034   0.00615  -0.01728   0.00646   0.00188
    C7       Z    -0.00400   0.00189  -0.02809  -0.00615  -0.04700  -0.00500
    H5       X     0.00688   0.02821  -0.00528   0.11889   0.01209  -0.13706
    H5       Y     0.05997   0.04269   0.16142  -0.80495  -0.06882   0.31551
    H5       Z    -0.03418   0.31053   0.10215  -0.12068   0.01533  -0.11133
    H6       X     0.06093  -0.43060  -0.07001   0.05487  -0.00930   0.01185
    H6       Y    -0.07749  -0.07853  -0.10963   0.24781  -0.09922   0.70069
    H6       Z    -0.00862  -0.08465  -0.01432   0.03840  -0.00155   0.03305
    C10      X     0.00692  -0.01718   0.01877   0.00769   0.00660  -0.02255
    C10      Y     0.11722  -0.01512   0.12600   0.03441  -0.04107  -0.00879
    C10      Z     0.07480   0.01226  -0.03833  -0.00839   0.01384  -0.00231
    H8       X    -0.04741  -0.01975  -0.01617  -0.01732   0.07229  -0.06804
    H8       Y    -0.03082   0.04610  -0.51124  -0.07381  -0.13805  -0.31878
    H8       Z    -0.23403  -0.02533   0.25755  -0.00267   0.18060   0.05058
    H9       X     0.29190  -0.00063  -0.08538   0.02063  -0.12754   0.03193
    H9       Y    -0.18268  -0.03031   0.35121   0.08688   0.39827  -0.16090
    H9       Z     0.00377   0.00878  -0.08971  -0.02916  -0.11377   0.02887
    C13      X    -0.11126  -0.01258  -0.03567  -0.00739   0.03029   0.01662
    C13      Y    -0.03507  -0.01051  -0.02717  -0.01101   0.00837  -0.00224
    C13      Z     0.00853   0.01124   0.01245   0.00517   0.06538  -0.00083
    H11      X     0.00157  -0.09487   0.00096   0.01791   0.02281   0.00532
    H11      Y     0.04757   0.21504   0.01855  -0.07679  -0.03295  -0.12239
    H11      Z     0.01287  -0.11080   0.00529  -0.02754   0.00905  -0.02463
    H12      X     0.00121   0.00080  -0.04661  -0.00191   0.16460   0.03591
    H12      Y    -0.08499   0.04806  -0.25563  -0.08779   0.32663   0.19610
    H12      Z    -0.22493  -0.03843   0.10532   0.01523  -0.32251  -0.10080
    H13      X    -0.36403  -0.05492  -0.00480  -0.01984  -0.28591   0.00117
    H13      Y    -0.07610  -0.07868   0.07981  -0.00568  -0.45177  -0.01323
    H13      Z     0.01774   0.03096  -0.02033   0.00255   0.20062   0.00164
    H14      X     0.02881  -0.01118  -0.07584  -0.01913  -0.05477  -0.03637
    H14      Y     0.29394   0.04592  -0.30729  -0.08690   0.15711   0.04871
    H14      Z     0.00589  -0.01081   0.12975   0.03911  -0.05604  -0.02361
  
  vibration #           13        14        15        16        17        18
                 --------- --------- --------- --------- --------- ---------
  frequencies       920.57    930.45    962.47    967.05    996.06   1017.56
  intensities         0.44      0.22     31.39      8.30      3.43      4.75
  reduc. mass         0.23      0.45      0.27      0.63      0.33      0.48
  force const         0.11      0.23      0.15      0.35      0.19      0.29
    O1       X    -0.01824   0.00814   0.04358   0.05967   0.05755   0.01116
    O1       Y     0.00554  -0.00012  -0.01779   0.01305   0.00529   0.02460
    O1       Z    -0.00930   0.00403   0.00404   0.00867   0.01241  -0.00321
    C3       X     0.01123  -0.01794  -0.01741  -0.00158   0.01225   0.02718
    C3       Y    -0.00050  -0.02309   0.07900  -0.11074   0.04246  -0.01391
    C3       Z     0.00947  -0.01473   0.00595  -0.02156  -0.00824  -0.01634
    C5       X     0.02123  -0.01358  -0.05941  -0.09234  -0.08952  -0.03497
    C5       Y    -0.01707   0.06798  -0.01201   0.01462  -0.02168  -0.00780
    C5       Z    -0.00720   0.01109  -0.00737   0.03385   0.01201   0.01070
    C7       X    -0.03014   0.00613  -0.01835   0.00068   0.01564  -0.08837
    C7       Y     0.00133   0.10251  -0.00484  -0.01615  -0.01411   0.02073
    C7       Z     0.05503  -0.01282   0.02604   0.01220  -0.01809   0.00700
    H5       X     0.04069   0.01910  -0.13956  -0.19413  -0.20344  -0.09822
    H5       Y     0.00510  -0.14385   0.14235  -0.06691   0.08844   0.05301
    H5       Z     0.06800  -0.03570  -0.14121  -0.32093  -0.25217  -0.13624
    H6       X    -0.07252   0.08944   0.17075   0.19955   0.20639   0.08146
    H6       Y     0.06158  -0.31466  -0.36315   0.07238  -0.13683   0.05359
    H6       Z    -0.02011   0.02011   0.02079   0.07442   0.05251   0.02727
    C10      X    -0.00132  -0.01119   0.00520   0.00025  -0.00305   0.00001
    C10      Y     0.00592  -0.03721   0.04907   0.04234  -0.05565   0.01260
    C10      Z    -0.00366   0.02389  -0.02490  -0.01878   0.03689   0.01043
    H8       X    -0.22693  -0.18540  -0.03676  -0.00768   0.06733  -0.22047
    H8       Y    -0.08699  -0.58888   0.15436   0.04083  -0.03548  -0.06171
    H8       Z    -0.25278   0.09294  -0.11360  -0.04079   0.09334  -0.17679
    H9       X     0.41887   0.05086   0.05830   0.05928  -0.02091   0.05906
    H9       Y     0.34324  -0.40048  -0.08899   0.10706   0.30692  -0.13107
    H9       Z    -0.05567   0.08671   0.03453  -0.01979  -0.07871   0.02009
    C13      X    -0.02762   0.01264   0.00951   0.00618  -0.03650   0.09052
    C13      Y    -0.01386  -0.01091  -0.01893  -0.02741   0.01233   0.04372
    C13      Z    -0.04282  -0.02131   0.01174   0.01014  -0.02361  -0.00012
    H11      X    -0.01494   0.00216   0.18159  -0.01739   0.18522   0.05269
    H11      Y     0.03012  -0.01069  -0.46569   0.51555  -0.14972   0.10231
    H11      Z     0.01151  -0.00802  -0.05462   0.08338  -0.00965   0.01207
    H12      X    -0.17663  -0.02387   0.03069   0.02244  -0.11076   0.18459
    H12      Y     0.20882   0.16603   0.26604   0.28964  -0.25888  -0.56684
    H12      Z     0.21933   0.00852  -0.11393  -0.11461   0.21297  -0.01778
    H13      X     0.30623   0.11508   0.01394   0.03807   0.06487  -0.15508
    H13      Y    -0.35354  -0.01562  -0.08512   0.12165   0.09168  -0.39850
    H13      Z     0.06342  -0.01821   0.03022  -0.03536  -0.04400   0.12612
    H14      X     0.33170   0.08847  -0.01256  -0.01353   0.10267  -0.01431
    H14      Y    -0.00831   0.12787  -0.37647  -0.12826   0.44644  -0.10022
    H14      Z    -0.01508  -0.04519   0.13726   0.04759  -0.15887   0.05722
  
  vibration #           19        20        21        22        23        24
                 --------- --------- --------- --------- --------- ---------
  frequencies      1038.33   1231.88   1242.99   1255.61   1319.04   1390.50
  intensities         0.85     18.53      1.81      2.63     12.23      9.29
  reduc. mass         0.65      1.11      0.65      1.39      1.21      0.53
  force const         0.41      0.99      0.59      1.29      1.24      0.61
    O1       X     0.00391  -0.03316  -0.03784  -0.00801   0.10013  -0.00715
    O1       Y     0.01406  -0.01212  -0.00442  -0.00140   0.02278   0.00749
    O1       Z    -0.00413   0.02052   0.01740   0.00131  -0.05085  -0.00611
    C3       X     0.02080  -0.03280   0.01986   0.01001  -0.07616   0.04085
    C3       Y    -0.00877   0.02105   0.01935   0.00241  -0.01792   0.00784
    C3       Z    -0.01979  -0.13755  -0.08522   0.00180   0.05296   0.00213
    C5       X    -0.01817   0.04537   0.01440  -0.00137   0.00677  -0.00489
    C5       Y     0.00169  -0.01306  -0.01804  -0.00789   0.00582  -0.00934
    C5       Z     0.01203   0.09951   0.05328  -0.00329   0.02679   0.01609
    C7       X     0.09969   0.01195  -0.02385  -0.05532  -0.00005  -0.00013
    C7       Y     0.00540  -0.01461   0.00528  -0.03373  -0.01310   0.01020
    C7       Z    -0.01802   0.00853  -0.01319  -0.10052  -0.00871   0.02526
    H5       X    -0.04921   0.07759   0.01625  -0.00147  -0.00971  -0.04930
    H5       Y    -0.00752   0.06081   0.04761   0.00963  -0.00830   0.01190
    H5       Z    -0.08891   0.18827   0.07257   0.00846  -0.01685  -0.09389
    H6       X     0.05010   0.45125   0.25203  -0.01062  -0.00774  -0.03036
    H6       Y     0.07072  -0.03865   0.02980   0.05652  -0.06490  -0.01197
    H6       Z     0.02168   0.17473   0.09691  -0.00374   0.02338   0.00857
    C10      X     0.00143  -0.03809   0.05327   0.03636  -0.02396   0.12284
    C10      Y    -0.01617   0.02949  -0.04535   0.06445   0.00070  -0.01832
    C10      Z    -0.00702   0.03714  -0.06767   0.13286  -0.00190   0.00468
    H8       X     0.25033   0.03186  -0.05192  -0.02747   0.04091  -0.26360
    H8       Y     0.08936   0.04825  -0.03640   0.04592   0.02725  -0.08511
    H8       Z     0.19145   0.00596  -0.03953  -0.06675   0.03746  -0.36885
    H9       X    -0.13694   0.00391   0.00272  -0.49287   0.00876  -0.32808
    H9       Y    -0.26095   0.09275  -0.03248  -0.07711   0.02836   0.06090
    H9       Z     0.06523  -0.01114  -0.01210  -0.06126  -0.01710   0.02850
    C13      X    -0.10096   0.03013  -0.04549   0.00924   0.00477  -0.00401
    C13      Y     0.06123  -0.01892   0.03545  -0.03066   0.02076  -0.01553
    C13      Z    -0.01878  -0.04825   0.08738  -0.03026   0.00425  -0.02339
    H11      X     0.00631  -0.17211  -0.04077   0.02377  -0.74683  -0.23317
    H11      Y     0.09109   0.00754   0.02667   0.01831  -0.16304  -0.04209
    H11      Z    -0.00132  -0.17256  -0.09440   0.00789  -0.11128  -0.05565
    H12      X    -0.23217   0.02816  -0.02395   0.00690   0.01961  -0.19153
    H12      Y     0.00037   0.00659   0.00908   0.08762  -0.08699   0.17603
    H12      Z     0.26812  -0.03634   0.02375  -0.03704   0.00514   0.30165
    H13      X     0.02863   0.18611  -0.32341   0.23182  -0.02667  -0.27192
    H13      Y    -0.49098  -0.10957   0.20107  -0.05331  -0.02854   0.01895
    H13      Z     0.15673  -0.02468   0.04329  -0.02261   0.01812  -0.02292
    H14      X    -0.01227  -0.27760   0.55296   0.40976   0.18802  -0.36004
    H14      Y    -0.23187   0.07761  -0.13588  -0.00090  -0.02088   0.05197
    H14      Z     0.06664   0.03368  -0.06416   0.14726  -0.00564   0.00459
  
  vibration #           25        26        27        28        29        30
                 --------- --------- --------- --------- --------- ---------
  frequencies      1428.28   1488.69   1510.82   1589.14   2911.77   3094.56
  intensities        10.58      3.14     13.74     39.64    105.36     12.43
  reduc. mass         0.72      0.56      0.83      1.94      0.92      0.51
  force const         0.86      0.73      1.12      2.89      4.62      2.88
    O1       X     0.06563   0.00662  -0.02009   0.04759  -0.00316  -0.00046
    O1       Y     0.01100  -0.00277   0.00646   0.00932  -0.00099   0.00014
    O1       Z    -0.01241   0.00294  -0.00540  -0.00563   0.00011   0.00038
    C3       X    -0.11175  -0.05070   0.10684  -0.13451  -0.00769   0.00022
    C3       Y    -0.03374  -0.00194   0.00374  -0.01100  -0.01377   0.00013
    C3       Z     0.03803  -0.01977   0.04220  -0.02951   0.07903  -0.00056
    C5       X    -0.04466   0.03888  -0.08331   0.06478   0.00023   0.00283
    C5       Y     0.00673   0.00355  -0.00838  -0.00541   0.00144   0.00104
    C5       Z    -0.07625   0.02516  -0.05871   0.04063  -0.00342   0.00267
    C7       X     0.02262  -0.04690  -0.09335  -0.09131   0.00018   0.00232
    C7       Y    -0.00604  -0.01611   0.00438  -0.00936   0.00016  -0.00061
    C7       Z     0.01349  -0.03471  -0.04292  -0.02979  -0.00025   0.00213
    H5       X     0.17142   0.00117   0.01376   0.02817  -0.04207  -0.04059
    H5       Y    -0.02697   0.00259   0.00410   0.00328  -0.01208  -0.00956
    H5       Z     0.53275  -0.09955   0.25738  -0.08720   0.02054   0.01448
    H6       X     0.37284  -0.11351   0.28185  -0.13332   0.00239   0.00797
    H6       Y     0.10550  -0.02303   0.09088  -0.01057  -0.00242   0.00078
    H6       Z     0.00315   0.00354  -0.00363   0.01951   0.00244  -0.04579
    C10      X     0.00173  -0.03353   0.08351   0.15300   0.00004  -0.00447
    C10      Y    -0.00568   0.03757   0.00540  -0.02207  -0.00024   0.00072
    C10      Z    -0.00600   0.03457   0.02497   0.00849  -0.00055  -0.00257
    H8       X    -0.07091   0.13912   0.11021  -0.00645   0.00035  -0.02438
    H8       Y    -0.02193   0.06859   0.04533   0.03053  -0.00109   0.00988
    H8       Z    -0.14382   0.24954   0.30828   0.12023   0.00049   0.01619
    H9       X    -0.14952   0.20766   0.33066   0.15940   0.00014  -0.00025
    H9       Y     0.03282  -0.04746  -0.12743  -0.04294   0.00011  -0.00721
    H9       Z     0.01699  -0.04957  -0.05261  -0.05380   0.00209  -0.04021
    C13      X     0.01194   0.10058  -0.01546  -0.07153   0.00010   0.04729
    C13      Y     0.01573  -0.03587  -0.02074   0.03698   0.00108  -0.01450
    C13      Z    -0.00735  -0.05425  -0.00424   0.01908  -0.00045  -0.04297
    H11      X     0.24677   0.12172  -0.23198   0.18805   0.17416  -0.00128
    H11      Y     0.04538   0.01829  -0.03552   0.03364   0.16433  -0.00220
    H11      Z     0.11530   0.00721  -0.00993   0.01925  -0.92454   0.00577
    H12      X    -0.05041  -0.15672  -0.04240  -0.01863   0.00014  -0.51576
    H12      Y     0.00624   0.17692   0.06233  -0.03066  -0.00008  -0.07554
    H12      Z     0.12331   0.44082   0.02585  -0.09242   0.00007  -0.25172
    H13      X    -0.14753  -0.48478   0.02455   0.15509  -0.00010   0.00413
    H13      Y    -0.03750  -0.00613   0.01601  -0.02884  -0.00069   0.22194
    H13      Z     0.01156  -0.06560  -0.01506   0.04791   0.00597   0.73945
    H14      X     0.01613   0.08113  -0.14678  -0.18019   0.00023   0.00375
    H14      Y    -0.00444   0.00670   0.02761   0.02678   0.00244   0.01712
    H14      Z    -0.00884   0.05048   0.03623   0.00981   0.00595   0.04745
  
  vibration #           31        32        33        34        35        36
                 --------- --------- --------- --------- --------- ---------
  frequencies      3095.87   3100.57   3106.03   3188.74   3189.90   3204.61
  intensities         6.92      9.82      4.81      2.90      5.29     12.95
  reduc. mass         0.28      0.28      0.20      0.40      0.56      0.41
  force const         1.58      1.60      1.15      2.41      3.33      2.51
    O1       X     0.00027  -0.00016  -0.00057   0.00016   0.00023   0.00018
    O1       Y     0.00025  -0.00020  -0.00030   0.00015  -0.00005   0.00004
    O1       Z     0.00008   0.00025   0.00047  -0.00019   0.00038  -0.00033
    C3       X    -0.00195  -0.00290  -0.00237  -0.00057   0.00018  -0.00141
    C3       Y     0.00037   0.00081   0.00088  -0.00037   0.00021  -0.00079
    C3       Z    -0.00255  -0.00373  -0.00453   0.00157   0.00000   0.00359
    C5       X     0.01572   0.03348   0.03671  -0.02254  -0.00372  -0.05175
    C5       Y     0.00321   0.00726   0.00869  -0.00483  -0.00069  -0.01046
    C5       Z     0.01348   0.02512   0.02282   0.02650   0.00468   0.06911
    C7       X    -0.03990  -0.01781   0.03698   0.03956  -0.00179  -0.01348
    C7       Y     0.00572  -0.00131  -0.00351  -0.02555   0.00189   0.00928
    C7       Z    -0.01644  -0.01827   0.02081  -0.07303   0.00566   0.02958
    H5       X    -0.20232  -0.43390  -0.47451   0.23084   0.03844   0.51886
    H5       Y    -0.04594  -0.09990  -0.11052   0.05278   0.00874   0.12088
    H5       Z     0.07121   0.15230   0.16567  -0.07509  -0.01220  -0.16768
    H6       X     0.03763   0.07419   0.07305   0.03676   0.00702   0.10248
    H6       Y     0.00429   0.01010   0.01104   0.00374   0.00138   0.01194
    H6       Z    -0.21281  -0.42024  -0.40977  -0.23994  -0.04492  -0.66233
    C10      X     0.00067   0.00510  -0.00423  -0.00036   0.00002   0.00030
    C10      Y    -0.01864   0.02026  -0.01116  -0.00337  -0.00369   0.00136
    C10      Z    -0.04793   0.05144  -0.02738  -0.00844  -0.00836   0.00336
    H8       X     0.42463   0.14252  -0.35945  -0.52006   0.03178   0.18297
    H8       Y    -0.15833  -0.05167   0.13318   0.18801  -0.01173  -0.06726
    H8       Z    -0.24168  -0.08143   0.20280   0.27638  -0.01653  -0.09697
    H9       X     0.02813   0.02181  -0.02986   0.05678  -0.00152  -0.02376
    H9       Y     0.08851   0.05852  -0.09086   0.12027  -0.00930  -0.05271
    H9       Z     0.42398   0.28025  -0.43077   0.59744  -0.04609  -0.25951
    C13      X     0.00137  -0.00228  -0.00351  -0.00164  -0.05794   0.00434
    C13      Y     0.00191  -0.00273   0.00339  -0.00018  -0.02033   0.00199
    C13      Z     0.00554  -0.00601   0.00677  -0.00157  -0.07004   0.00608
    H11      X    -0.00036   0.00101  -0.00013   0.00172  -0.00080   0.00524
    H11      Y    -0.00266  -0.00316  -0.00549   0.00221  -0.00041   0.00411
    H11      Z     0.01296   0.01477   0.02032  -0.01012   0.00128  -0.02939
    H12      X    -0.03417   0.04534   0.02504   0.01671   0.68123  -0.05002
    H12      Y    -0.00497   0.00790   0.00195   0.00157   0.09073  -0.00614
    H12      Z    -0.01522   0.02248   0.01150   0.00824   0.31190  -0.02335
    H13      X     0.00000  -0.00176   0.00072  -0.00257  -0.00940   0.00169
    H13      Y    -0.01275   0.01433  -0.02803   0.00609   0.15870  -0.01567
    H13      Z    -0.04712   0.04495  -0.08972   0.01471   0.52585  -0.04961
    H14      X     0.02909  -0.03233   0.01735   0.00527   0.00258  -0.00206
    H14      Y     0.21622  -0.22226   0.11373   0.03138   0.03201  -0.01218
    H14      Z     0.57776  -0.59514   0.30246   0.08575   0.08496  -0.03605
  
  Number of imaginary frequencies:   1
   
  Writing vibrational animation data to real_ts.01.vib
  Writing IR vibrational spectrum data to real_ts.01_vib.spm
  rotational symmetry number:  1

  rotational temperatures (K):      0.226977      0.177199      0.114879
   
  The Quasi-Harmonic approximation will be applied to compute
  vibrational constributions to thermodynamic properties.
  Frequencies will be adjusted to a minimum value of  100.00 cm^-1.

    1 vibrational frequencies below   0.0 cm-1 not included in zero-point
  energy or thermochemical analysis.  Set freqcut to change the frequency
  cutoff value.

  vibrational temperatures:
       mode:      2        3        4        5        6        7
  temp. (K):   165.55   356.81   417.12   530.87   559.85   621.97
   
       mode:      8        9       10       11       12       13
  temp. (K):   733.72  1001.16  1102.19  1188.22  1228.11  1324.50
   
       mode:     14       15       16       17       18       19
  temp. (K):  1338.71  1384.78  1391.37  1433.10  1464.03  1493.93
   
       mode:     20       21       22       23       24       25
  temp. (K):  1772.40  1788.38  1806.54  1897.80  2000.61  2054.98
   
       mode:     26       27       28       29       30       31
  temp. (K):  2141.90  2173.73  2286.42  4189.38  4452.38  4454.26
   
       mode:     32       33       34       35       36
  temp. (K):  4461.02  4468.88  4587.87  4589.56  4610.72
   
   
  Thermodynamic properties calculated assuming an ideal gas

  In the table below, the units for temperature
  are kelvins, the units for U, H, and G are
  kcal/mol and the units for Cv and S are cal/(mol K)

  The zero point energy (ZPE):     71.016 kcal/mol
  is not included in U, H, or G in the table below
  
 
  =============================================================================
  Thermodynamic properties for P = 1.00E+00 atm, calculated at   1 temperatures


  T =   298.15 K, P = 1.00E+00 atm
   
                  U         Cv          S          H          G        ln(Q)
              =========  =========  =========  =========  =========  =========
  trans.          0.889      2.981     39.200      1.481    -10.206   17.22638
  rot.            0.889      2.981     26.445      0.889     -6.996   11.80739
  vib.            2.190     17.703     11.802      2.190     -1.329    2.24234
  elec.           0.000      0.000      0.000      0.000      0.000    0.00000
  ----------------------------------------------------------------------------
  total           3.968     23.665     77.447      4.560    -18.531   31.27610
   
   Total internal energy, Utot(SCFE + ZPE + U):    -270.008581 hartrees
   Total enthalpy, Htot (Utot + nRT), with n=1:    -270.007637 hartrees
    Total Gibbs free energy, Gtot (Htot - T*S):    -270.044434 hartrees
   
  end of program freq
   
 Time(freq)  user:        4.6  user+sys:        4.6  wallclock:       24.2

 Total cpu seconds     user:     146.490   user+sys:     146.490
  
 Total elapsed time:    244 seconds

Job real_ts.01 completed on hpc-21-14.cm.cluster at Thu Apr 20 12:09:13 2023
