Command:  /central/groups/wag/programs/Schrodinger_2022_3/jaguar run -TMPDIR /central/scratch/musgrave -WAIT -PARALLEL 1 real_ts.01.in
Release:  2022-3
Build:    /central/groups/wag/programs/Schrodinger_2022_3
Host:     hpc-21-14.cm.cluster
JobId:    hpc-21-14-0-64418cda
JobDir:   /central/scratch/musgrave/pkozlows/real_ts.01
Date:     Thu Apr 20 12:05:09 2023

Contents of /central/scratch/musgrave/pkozlows/real_ts.01:
/central/scratch/musgrave/pkozlows/real_ts.01/.write_dir.json
/central/scratch/musgrave/pkozlows/real_ts.01/real_ts.01.recover
/central/scratch/musgrave/pkozlows/real_ts.01/hpc-21-14-0-64418cda
/central/scratch/musgrave/pkozlows/real_ts.01/hpc-21-14-0-64418cda.mpinodes
/central/scratch/musgrave/pkozlows/real_ts.01/real_ts.01.log
/central/scratch/musgrave/pkozlows/real_ts.01/hpc-21-14-0-64418cda.recover
/central/scratch/musgrave/pkozlows/real_ts.01/real_ts.01.in

Executing subprocess:
/central/groups/wag/programs/Schrodinger_2022_3/jaguar-v11.7/bin/Linux-x86_64/jexec real_ts.01.in -out /central/scratch/musgrave/pkozlows/real_ts.01 -cwd

datadir=/central/groups/wag/programs/Schrodinger_2022_3/jaguar-v11.7/data
Job real_ts.01 started on hpc-21-14.cm.cluster at Thu Apr 20 12:05:09 2023
jobid: hpc-21-14-0-64418cda 
Jaguar version 11.7, release 121
Molecular Point Group: C1      
Point Group used: C1
pre (input checking) done.
onee (1-electron integrals) done.
hfig (HF initial guess) done.
probe (project orbitals) done.
grid (grid generation) done.
rwr (Q operators) done.
scf type: DFT=PBE(X+LC)+PW91 (PBE-D3)
  
       i  u  d  i  g
       t  p  i  c  r                                 RMS    maximum
       e  d  i  u  i                       energy  density   DIIS  
       r  t  s  t  d       total energy    change  change    error 
  
etot    1  N  N  2  U    -270.12249277525           2.6E-05  1.5E-04
etot    2  N  Y  2  U    -270.12249283493  6.0E-08  8.5E-06  4.4E-05
etot    3  N  Y  2  U    -270.12249210679 -7.3E-07  6.6E-06  1.4E-04
etot    4  N  Y  2  U    -270.12249292043  8.1E-07  3.1E-07  4.7E-06
etot    5  N  N  2  U    -270.12249292199  1.6E-09  0.0E+00  0.0E+00
scf (DFT) done.
der1a (1-e 1st deriv.) done.
rwr (1st deriv. Q) done.
der1b (2-e 1st deriv.) done.
  Geometry optimization step   1
  Total energy:      -270.12839030489 hartrees
  gradient maximum:        9.2556E-03 .  (  4.5000E-04 )
  gradient rms:            2.6301E-03 .  (  3.0000E-04 )
  displacement maximum:    6.3766E-02 .  (  1.8000E-03 )
  displacement rms:        1.6739E-02 .  (  1.2000E-03 )
  
  predicted energy change:  1.9232E-04
  step size:     0.10043
  trust radius:  0.10000
---------------- geometry iteration   1 complete ----------------
geopt (optimize geometry) done.
onee (1-electron integrals) done.
probe (project orbitals) done.
grid (grid generation) done.
rwr (Q operators) done.
  
       i  u  d  i  g
       t  p  i  c  r                                 RMS    maximum
       e  d  i  u  i                       energy  density   DIIS  
       r  t  s  t  d       total energy    change  change    error 
  
etot    1  N  N  2  U    -270.12105039461           4.5E-04  3.2E-03
etot    2  Y  Y  6  M    -270.12216364968  1.1E-03  2.3E-04  1.5E-03
etot    3  Y  Y  6  M    -270.12187362164 -2.9E-04  1.6E-04  3.2E-03
etot    4  Y  Y  6  M    -270.12224180871  3.7E-04  3.6E-05  3.5E-04
etot    5  N  Y  2  U    -270.12218426139 -5.8E-05  1.6E-05  3.3E-04
etot    6  N  Y  2  U    -270.12218780836  3.5E-06  4.2E-06  6.8E-05
etot    7  N  N  2  U    -270.12218810853  3.0E-07  0.0E+00  0.0E+00
scf (DFT) done.
der1a (1-e 1st deriv.) done.
rwr (1st deriv. Q) done.
der1b (2-e 1st deriv.) done.
  Geometry optimization step   2
  Total energy:      -270.12809064066 hartrees
  energy change:           2.9966E-04 .  (  5.0000E-05 )
  gradient maximum:        9.2609E-04 .  (  4.5000E-04 )
  gradient rms:            2.8014E-04 *  (  3.0000E-04 )
  displacement maximum:    8.8020E-03 .  (  1.8000E-03 )
  displacement rms:        2.7267E-03 .  (  1.2000E-03 )
  
  predicted energy change:  3.4278E-06
  step size:     0.01636
  trust radius:  0.14142
---------------- geometry iteration   2 complete ----------------
geopt (optimize geometry) done.
onee (1-electron integrals) done.
probe (project orbitals) done.
grid (grid generation) done.
rwr (Q operators) done.
  
       i  u  d  i  g
       t  p  i  c  r                                 RMS    maximum
       e  d  i  u  i                       energy  density   DIIS  
       r  t  s  t  d       total energy    change  change    error 
  
etot    1  N  N  2  U    -270.12214689594           6.6E-05  5.2E-04
etot    2  Y  Y  6  M    -270.12217718253  3.0E-05  3.2E-05  1.9E-04
etot    3  N  Y  2  U    -270.12216455581 -1.3E-05  2.2E-05  4.6E-04
etot    4  N  Y  2  U    -270.12217244054  7.9E-06  4.3E-06  3.8E-05
etot    5  N  N  2  U    -270.12217248812  4.8E-08  0.0E+00  0.0E+00
scf (DFT) done.
der1a (1-e 1st deriv.) done.
rwr (1st deriv. Q) done.
der1b (2-e 1st deriv.) done.
  Geometry optimization step   3
  Total energy:      -270.12807421052 hartrees
  energy change:           1.6430E-05 *  (  5.0000E-05 )
  gradient maximum:        1.4009E-04 *  (  4.5000E-04 )
  gradient rms:            4.3644E-05 #  (  3.0000E-04 )
  displacement maximum:    1.7252E-03 *  (  1.8000E-03 )
  displacement rms:        5.7392E-04 *  (  1.2000E-03 )
  
  predicted energy change: -3.2969E-08
  step size:     0.00344
  trust radius:  0.14142
------------- final geometry iteration   3 complete -------------
geopt (optimize geometry) done.
cutabab2 (abab integrals) done.
der2a (1-e JK-1st deriv.) done.
der2b (2-e JK-1st deriv.) done.
der2nda (1-e 2nd deriv.) done.
der2ndb (2-e 2nd deriv.) done.
rwr (Q operators) done.
cphfa (gradient of wave function) done.
freq (vib. frequencies) done.
Job real_ts.01 completed on hpc-21-14.cm.cluster at Thu Apr 20 12:09:13 2023
Timer (jaguar_backend.py) : 244.37 secs (0 hrs, 04 mins, 04 secs)
Finished:   Thu Apr 20 12:09:13 2023
