
#Set velocity (in km/s)
variable v equal 11

#Controls angle of impact
#a = angle from horizontal/10
variable        a equal 9

#Loop through the simulation several times with different random seeds
variable        b equal 1
label           loopb
variable        seed equal 240323*$b
variable        seed equal 240323*1

#Set up impact simulation
print		"<<<<<<<<< Vel=$v, Angle=$a, Test=$b >>>>>>>>>>>"
<<<<<<<<< Vel=11, Angle=9, Test=1 >>>>>>>>>>>
units	        real
newton	     	on
atom_style full

#Periodic boundary conditions
boundary        p p p

#Read the data file
read_data       data.${sname}
read_data       data.pth2o
  triclinic box = (0 0 0) to (44.3939 44.3939 50) with tilt (0 0 0)
  1 by 1 by 1 MPI processor grid
  reading atoms ...
  1539 atoms
  0 = max # of 1-2 neighbors
  0 = max # of 1-3 neighbors
  0 = max # of 1-4 neighbors
  1 = max # of special neighbors

#Obtain the REAX pair coefficients from the ffield file
pair_style      reax/c NULL safezone 5.0 mincap 1200
pair_coeff  	* * ffield.reax Pt H O

#Apply qeq charge equilibration
fix 		qeq all qeq/reax 1 0.0 10.0 1.0e-6 reax/c

#Details of how lammps computes neighboring atoms for pairwise interactions
neighbor        2.5  bin
neigh_modify    delay 10 every 2 check yes one 15000 page 150000

#group impacting H2O by atom ids
group impactor id 1537:1539
3 atoms in group impactor

#Print thermodynamic data every 10 steps
thermo          10

#Randomize initial position and set far to equilibrate
displace_atoms 	impactor move 20.0 20.0 0.0 units box

#Compute the center of mass of the impactor
compute         cmi impactor com
variable        xd equal c_cmi[1]
variable        yd equal c_cmi[2]
variable        zd equal c_cmi[3]
variable        ranangle equal random(0,90,${seed})
variable        ranangle equal random(0,90,240323)
thermo_style    custom step etotal pe ke temp press vol c_cmi[1] c_cmi[2] c_cmi[3]

#Rotate the impactor before beginning simulation
print ">>>>>> Rotated impactor by ${ranangle} <<<<<<<"
>>>>>> Rotated impactor by 38.1471168994904 <<<<<<<
run 0
Neighbor list info ...
  update every 2 steps, delay 10 steps, check yes
  max neighbors/atom: 15000, page size: 150000
  master list distance cutoff = 12.5
  ghost atom cutoff = 12.5
  binsize = 6.25, bins = 8 8 8
  2 neighbor lists, perpetual/occasional/extra = 2 0 0
  (1) pair reax/c, perpetual
      attributes: half, newton off, ghost
      pair build: half/bin/newtoff/ghost
      stencil: half/ghost/bin/3d/newtoff
      bin: standard
  (2) fix qeq/reax, perpetual, copy from (1)
      attributes: half, newton off, ghost
      pair build: copy
      stencil: none
      bin: none
Per MPI rank memory allocation (min/avg/max) = 655.1 | 655.1 | 655.1 Mbytes
Step TotEng PotEng KinEng Temp Press Volume c_cmi[1] c_cmi[2] c_cmi[3] 
       0   -175150.65   -175150.65            0            0   -10243.304    98540.745    22.227217    20.053875    32.690199 
Loop time of 2.14577e-06 on 1 procs for 0 steps with 1539 atoms

139.8% CPU use with 1 MPI tasks x no OpenMP threads

MPI task timing breakdown:
Section |  min time  |  avg time  |  max time  |%varavg| %total
---------------------------------------------------------------
Pair    | 0          | 0          | 0          |   0.0 |  0.00
Bond    | 0          | 0          | 0          |   0.0 |  0.00
Neigh   | 0          | 0          | 0          |   0.0 |  0.00
Comm    | 0          | 0          | 0          |   0.0 |  0.00
Output  | 0          | 0          | 0          |   0.0 |  0.00
Modify  | 0          | 0          | 0          |   0.0 |  0.00
Other   |            | 2.146e-06  |            |       |100.00

Nlocal:    1539 ave 1539 max 1539 min
Histogram: 1 0 0 0 0 0 0 0 0 0
Nghost:    5964 ave 5964 max 5964 min
Histogram: 1 0 0 0 0 0 0 0 0 0
Neighs:    291267 ave 291267 max 291267 min
Histogram: 1 0 0 0 0 0 0 0 0 0

Total # of neighbors = 291267
Ave neighs/atom = 189.257
Ave special neighs/atom = 0
Neighbor list builds = 0
Dangerous builds = 0
displace_atoms  impactor rotate ${xd} ${yd} ${zd} 0.0 0.0 1.0 ${ranangle}
displace_atoms  impactor rotate 22.22721660746 ${yd} ${zd} 0.0 0.0 1.0 ${ranangle}
displace_atoms  impactor rotate 22.22721660746 20.053874955595 ${zd} 0.0 0.0 1.0 ${ranangle}
displace_atoms  impactor rotate 22.22721660746 20.053874955595 32.6901990754796 0.0 0.0 1.0 ${ranangle}
displace_atoms  impactor rotate 22.22721660746 20.053874955595 32.6901990754796 0.0 0.0 1.0 6.82583034038544
displace_atoms  impactor rotate ${xd} ${yd} ${zd} 0.0 1.0 0.0 ${ranangle}
displace_atoms  impactor rotate 22.22721660746 ${yd} ${zd} 0.0 1.0 0.0 ${ranangle}
displace_atoms  impactor rotate 22.22721660746 20.053874955595 ${zd} 0.0 1.0 0.0 ${ranangle}
displace_atoms  impactor rotate 22.22721660746 20.053874955595 32.6901990754796 0.0 1.0 0.0 ${ranangle}
displace_atoms  impactor rotate 22.22721660746 20.053874955595 32.6901990754796 0.0 1.0 0.0 4.71330642700195
displace_atoms  impactor rotate ${xd} ${yd} ${zd} 1.0 0.0 0.0 ${ranangle}
displace_atoms  impactor rotate 22.22721660746 ${yd} ${zd} 1.0 0.0 0.0 ${ranangle}
displace_atoms  impactor rotate 22.22721660746 20.053874955595 ${zd} 1.0 0.0 0.0 ${ranangle}
displace_atoms  impactor rotate 22.22721660746 20.053874955595 32.6901990754796 1.0 0.0 0.0 ${ranangle}
displace_atoms  impactor rotate 22.22721660746 20.053874955595 32.6901990754796 1.0 0.0 0.0 0.0323742628097534

#Simulation timestep
timestep  	0.1

#Print data to lammptrj file
dump            1 all custom ${dumpstep}  ${sname}.$v.lammpstrj id type x y z vx vy vz
dump            1 all custom 100  ${sname}.$v.lammpstrj id type x y z vx vy vz
dump            1 all custom 100  pth2o.$v.lammpstrj id type x y z vx vy vz
dump            1 all custom 100  pth2o.11.lammpstrj id type x y z vx vy vz
dump_modify     1 sort id

#First, minimize structure
min_style       cg
minimize        0.0 1e-6 ${minsteps} 5000
minimize        0.0 1e-6 2000 5000
WARNING: Using 'neigh_modify every 1 delay 0 check yes' setting during minimization (../min.cpp:168)
Per MPI rank memory allocation (min/avg/max) = 657.7 | 657.7 | 657.7 Mbytes
Step TotEng PotEng KinEng Temp Press Volume c_cmi[1] c_cmi[2] c_cmi[3] 
       0   -175150.65   -175150.65            0            0   -10243.304    98540.745    22.227217    20.053875    32.690199 
      10   -180521.25   -180521.25            0            0   -14670.741    98540.745    22.270813     20.03625    32.718326 
      20   -183858.12   -183858.12            0            0     -14040.2    98540.745    22.270813    20.036249    32.718308 
      30    -187033.1    -187033.1            0            0   -12101.108    98540.745    22.270813     20.03625    32.718337 
      40   -189590.85   -189590.85            0            0   -9479.8697    98540.745    22.270813    20.036251    32.718354 
      50   -192125.99   -192125.99            0            0   -7461.2087    98540.745    22.270813     20.03625    32.718338 
      60    -193714.5    -193714.5            0            0    3907.6989    98540.745    22.240719    20.048416    32.698906 
      70   -193725.73   -193725.73            0            0    2580.4512    98540.745    22.233365    20.051389    32.694161 
      80   -193726.37   -193726.37            0            0    2241.1269    98540.745    22.235192     20.05065    32.695341 
      90   -193726.44   -193726.44            0            0    2163.7367    98540.745    22.235113    20.050683    32.695289 
     100   -193726.44   -193726.44            0            0    2167.0216    98540.745    22.235268     20.05062    32.695391 
     108   -193726.44   -193726.44            0            0    2166.1431    98540.745     22.23525    20.050627    32.695376 
Loop time of 44.3224 on 1 procs for 108 steps with 1539 atoms

99.4% CPU use with 1 MPI tasks x no OpenMP threads

Minimization stats:
  Stopping criterion = linesearch alpha is zero
  Energy initial, next-to-last, final = 
        -175150.648513     -193726.443519     -193726.443475
  Force two-norm initial, final = 630.233 0.0253096
  Force max component initial, final = 45.9564 0.0115236
  Final line search alpha, max atom move = 3.05176e-05 3.51673e-07
  Iterations, force evaluations = 108 259

MPI task timing breakdown:
Section |  min time  |  avg time  |  max time  |%varavg| %total
---------------------------------------------------------------
Pair    | 40.4       | 40.4       | 40.4       |   0.0 | 91.15
Bond    | 0.00014377 | 0.00014377 | 0.00014377 |   0.0 |  0.00
Neigh   | 0.025796   | 0.025796   | 0.025796   |   0.0 |  0.06
Comm    | 0.012221   | 0.012221   | 0.012221   |   0.0 |  0.03
Output  | 0.0059736  | 0.0059736  | 0.0059736  |   0.0 |  0.01
Modify  | 3.8587     | 3.8587     | 3.8587     |   0.0 |  8.71
Other   |            | 0.0195     |            |       |  0.04

Nlocal:    1539 ave 1539 max 1539 min
Histogram: 1 0 0 0 0 0 0 0 0 0
Nghost:    5964 ave 5964 max 5964 min
Histogram: 1 0 0 0 0 0 0 0 0 0
Neighs:    302424 ave 302424 max 302424 min
Histogram: 1 0 0 0 0 0 0 0 0 0

Total # of neighbors = 302424
Ave neighs/atom = 196.507
Ave special neighs/atom = 0
Neighbor list builds = 1
Dangerous builds = 0

#Then, run equilibration
velocity 	all create 100.0 4928459 rot yes dist gaussian #generates initial velocities at 100 K  via a gaussian distribution
fix 		equil all nvt temp 100.0 100.0 50.0 #nvt dynamics on all atoms at starting and ending temps of 100 K w 50 fs damping
run 		${eqsteps}
run 		500
Per MPI rank memory allocation (min/avg/max) = 657.8 | 657.8 | 657.8 Mbytes
Step TotEng PotEng KinEng Temp Press Volume c_cmi[1] c_cmi[2] c_cmi[3] 
     108   -193267.99   -193726.44    458.44859          100     2378.811    98540.745     22.23525    20.050627    32.695376 
     110   -193267.99   -193726.42    458.42547    99.994958    2378.2886    98540.745    22.235193    20.051241    32.695248 
     120   -193267.99   -193725.66    457.66384    99.828825    2376.5494    98540.745    22.234905    20.054311     32.69461 
     130   -193267.99   -193724.09    456.09497    99.486613    2376.6724    98540.745    22.234617    20.057381    32.693972 
     140   -193267.99   -193722.06    454.06751     99.04437    2378.9604    98540.745    22.234329    20.060451    32.693334 
     150   -193267.99   -193719.58    451.59061     98.50409    2383.4258    98540.745    22.234041    20.063521    32.692696 
     160   -193267.97   -193716.32    448.34364    97.795838    2389.7716    98540.745    22.233753    20.066592    32.692058 
     170   -193267.96   -193712.03     444.0729    96.864276    2397.4002    98540.745    22.233465    20.069662    32.691421 
     180   -193267.93   -193706.87    438.94639    95.746045    2405.5586    98540.745    22.233178    20.072732    32.690783 
     190   -193267.88   -193701.27    433.38833    94.533683      2413.66    98540.745     22.23289    20.075803    32.690145 
     200   -193267.82   -193695.35    427.53269     93.25641    2421.6033    98540.745    22.232602    20.078873    32.689507 
     210   -193267.73    -193688.8    421.06847    91.846388    2429.8665    98540.745    22.232314    20.081944    32.688869 
     220   -193267.62   -193681.33    413.71206    90.241756     2439.224    98540.745    22.232026    20.085015     32.68823 
     230   -193267.47   -193673.08    405.60666    88.473751    2450.3051    98540.745    22.231738    20.088087    32.687592 
     240   -193267.29   -193664.46     397.1631    86.631983    2463.3233    98540.745     22.23145    20.091159    32.686954 
     250   -193267.08   -193655.69    388.61408    84.767211    2478.1107    98540.745    22.231161    20.094233    32.686315 
     260   -193266.82   -193646.61    379.78694    82.841774    2494.2128    98540.745    22.230873    20.097307    32.685677 
     270   -193266.51   -193636.87    370.35074    80.783485    2510.9168    98540.745    22.230585    20.100382    32.685038 
     280   -193266.16   -193626.45    360.29498    78.590052    2527.3888    98540.745    22.230296    20.103458    32.684398 
     290   -193265.75   -193615.77    350.01603    76.347936    2543.0947    98540.745    22.230008    20.106537    32.683759 
     300   -193265.29   -193605.12    339.82922    74.125918    2558.1408    98540.745    22.229719    20.109617    32.683119 
     310   -193264.77   -193594.37    329.60613    71.895985    2573.1391    98540.745     22.22943    20.112699    32.682478 
     320   -193264.19   -193583.23    319.04048    69.591333    2588.8124    98540.745     22.22914    20.115784    32.681838 
     330   -193263.56   -193571.66    308.09652     67.20416     2605.665    98540.745    22.228851    20.118872    32.681196 
     340   -193262.88   -193559.96    297.07714    64.800535    2623.7699    98540.745    22.228561    20.121963    32.680554 
     350   -193262.16   -193548.47    286.31681    62.453418    2642.7771    98540.745    22.228271    20.125058    32.679911 
     360   -193261.39   -193537.23    275.84301      60.1688    2662.0804    98540.745     22.22798    20.128156    32.679267 
     370   -193260.58   -193525.95    265.36772    57.883857    2680.9936    98540.745    22.227689     20.13126    32.678622 
     380   -193259.75   -193514.43    254.67606    55.551716    2698.8823    98540.745    22.227398    20.134368    32.677976 
     390   -193258.91   -193502.87    243.95809    53.213839    2715.3693    98540.745    22.227106    20.137481    32.677329 
     400   -193258.07   -193491.67     233.5978    50.953981    2730.5063    98540.745    22.226813    20.140599    32.676681 
     410   -193257.24   -193480.93    223.69508     48.79393     2744.836    98540.745     22.22652    20.143724    32.676032 
     420   -193256.43   -193470.43    214.00451    46.680155    2759.1215    98540.745    22.226227    20.146853    32.675382 
     430   -193255.65   -193459.96    204.31084    44.565704    2773.9723    98540.745    22.225933    20.149989    32.674731 
     440    -193254.9   -193449.62    194.71344    42.472252    2789.4625    98540.745    22.225638    20.153131    32.674078 
     450    -193254.2   -193439.75    185.54525    40.472422     2805.118    98540.745    22.225343    20.156278    32.673424 
     460   -193253.54   -193430.57    177.03084      38.6152    2820.1383    98540.745    22.225047    20.159431    32.672769 
     470   -193252.91   -193421.94    169.02691    36.869327    2833.7293    98540.745    22.224751     20.16259    32.672112 
     480   -193252.31   -193413.53    161.21343    35.164997    2845.3852    98540.745    22.224454    20.165755    32.671455 
     490   -193251.74    -193405.3    153.55638    33.494788    2855.0621    98540.745    22.224157    20.168925    32.670796 
     500    -193251.2   -193397.59    146.39109    31.931845    2863.1197    98540.745    22.223859    20.172101    32.670136 
     510   -193250.67   -193390.67    140.00748    30.539406    2870.1518    98540.745    22.223561    20.175283    32.669475 
     520   -193250.15   -193384.48    134.33719    29.302565    2876.8125    98540.745    22.223262    20.178471    32.668813 
     530   -193249.63   -193378.74    129.10259    28.160756    2883.5754    98540.745    22.222962    20.181665    32.668149 
     540   -193249.13   -193373.29     124.1692    27.084652    2890.4733    98540.745    22.222662    20.184866    32.667484 
     550   -193248.62   -193368.34    119.72248    26.114702    2897.0484    98540.745    22.222362    20.188073    32.666818 
     560   -193248.11    -193364.2    116.08945     25.32224    2902.5518    98540.745     22.22206    20.191287     32.66615 
     570    -193247.6   -193360.94    113.33841    24.722163     2906.281    98540.745    22.221758    20.194507    32.665481 
     580   -193247.08   -193358.23    111.15151    24.245143    2907.8394    98540.745    22.221455    20.197735     32.66481 
     590   -193246.56   -193355.79     109.2293    23.825855    2907.3049    98540.745    22.221152    20.200971    32.664138 
     600   -193246.02   -193353.72    107.69264    23.490668    2905.1693    98540.745    22.220848    20.204215    32.663464 
     608   -193245.59   -193352.59    106.99247    23.337944    2902.7717    98540.745    22.220604    20.206815    32.662923 
Loop time of 87.3888 on 1 procs for 500 steps with 1539 atoms

Performance: 0.049 ns/day, 485.493 hours/ns, 5.722 timesteps/s
99.5% CPU use with 1 MPI tasks x no OpenMP threads

MPI task timing breakdown:
Section |  min time  |  avg time  |  max time  |%varavg| %total
---------------------------------------------------------------
Pair    | 81.006     | 81.006     | 81.006     |   0.0 | 92.70
Bond    | 0.00022364 | 0.00022364 | 0.00022364 |   0.0 |  0.00
Neigh   | 0          | 0          | 0          |   0.0 |  0.00
Comm    | 0.023438   | 0.023438   | 0.023438   |   0.0 |  0.03
Output  | 0.031928   | 0.031928   | 0.031928   |   0.0 |  0.04
Modify  | 6.322      | 6.322      | 6.322      |   0.0 |  7.23
Other   |            | 0.005623   |            |       |  0.01

Nlocal:    1539 ave 1539 max 1539 min
Histogram: 1 0 0 0 0 0 0 0 0 0
Nghost:    5964 ave 5964 max 5964 min
Histogram: 1 0 0 0 0 0 0 0 0 0
Neighs:    311995 ave 311995 max 311995 min
Histogram: 1 0 0 0 0 0 0 0 0 0

Total # of neighbors = 311995
Ave neighs/atom = 202.726
Ave special neighs/atom = 0
Neighbor list builds = 0
Dangerous builds = 0
unfix 		equil

#Bring the impactor close to the surface
displace_atoms  impactor move 0.0 0.0 -15.0 units box

#Give the impactor a velocity toward the surface
variable 	impv equal $v*-0.01
variable 	impv equal 11*-0.01
variable 	ang equal PI*$a*10/180.0
variable 	ang equal PI*9*10/180.0
variable 	vy equal ${impv}*cos(${ang})
variable 	vy equal -0.11*cos(${ang})
variable 	vy equal -0.11*cos(1.5707963267949)
variable 	vz equal ${impv}*sin(${ang})
variable 	vz equal -0.11*sin(${ang})
variable 	vz equal -0.11*sin(1.5707963267949)
velocity 	impactor set NULL ${vy} ${vz} sum yes units box
velocity 	impactor set NULL 3.84062947272745e-16 ${vz} sum yes units box
velocity 	impactor set NULL 3.84062947272745e-16 -0.11 sum yes units box

#Guess the number of steps that will be needed
variable impsteps equal ceil(-20/${vz}*10)
variable impsteps equal ceil(-20/-0.11*10)

#Run the impact simulation
fix  		dyn all nve
fix 		frags all reax/c/species 10 10 100 species.$b.$a.out element Pt H O cutoff 2 2 .88 cutoff 3 3 .88 cutoff 2 3 .88
fix 		frags all reax/c/species 10 10 100 species.1.$a.out element Pt H O cutoff 2 2 .88 cutoff 3 3 .88 cutoff 2 3 .88
fix 		frags all reax/c/species 10 10 100 species.1.9.out element Pt H O cutoff 2 2 .88 cutoff 3 3 .88 cutoff 2 3 .88
WARNING: Resetting reneighboring criteria for fix reax/c/species (../fix_reaxc_species.cpp:103)
fix  		bonds all reax/c/bonds 100 bonds.reaxc.$b.$a.${sname}
fix  		bonds all reax/c/bonds 100 bonds.reaxc.1.$a.${sname}
fix  		bonds all reax/c/bonds 100 bonds.reaxc.1.9.${sname}
fix  		bonds all reax/c/bonds 100 bonds.reaxc.1.9.pth2o
run 		${impsteps}
run 		1819
Per MPI rank memory allocation (min/avg/max) = 668.8 | 668.8 | 668.8 Mbytes
Step TotEng PotEng KinEng Temp Press Volume c_cmi[1] c_cmi[2] c_cmi[3] 
     608   -192981.91   -193352.61    370.70346    80.860421     3025.067    98540.745    22.220604    20.206815    17.662923 
     610   -192981.91   -193352.42      370.512    80.818658    3024.3681    98540.745    22.220543    20.207466    17.640788 
     620   -192981.91   -193351.98    370.07623    80.723606    3020.8319    98540.745    22.220238     20.21072    17.530112 
     630   -192981.91   -193352.18    370.27726    80.767455    3017.5373    98540.745    22.219933    20.213974    17.419435 
     640   -192981.91   -193352.68    370.77296    80.875582    3014.5297    98540.745    22.219627    20.217228    17.308757 
     650   -192981.91   -193353.42    371.51472    81.037379    3011.2919    98540.745    22.219322    20.220482    17.198078 
     660   -192981.91   -193354.73    372.81727      81.3215    3006.9386    98540.745    22.219017    20.223736    17.087399 
     670   -192981.91   -193356.85    374.94182    81.784922     3000.722    98540.745    22.218712     20.22699    16.976718 
     680   -192981.91   -193359.59    377.68101    82.382413    2992.4854    98540.745    22.218407    20.230244    16.866037 
     690   -192981.91    -193362.5     380.5938    83.017771     2982.655    98540.745    22.218102    20.233498    16.755355 
     700   -192981.91   -193365.48    383.57139    83.667264    2971.9395    98540.745    22.217796    20.236752    16.644671 
     710   -192981.91   -193368.83    386.92121    84.397951    2961.0178    98540.745    22.217491    20.240006    16.533985 
     720   -192981.91   -193372.84    390.93066     85.27252    2950.4209    98540.745    22.217186     20.24326    16.423298 
     730   -192981.91   -193377.41    395.50068    86.269364    2940.4249    98540.745    22.216881    20.246514    16.312608 
     740   -192981.91   -193382.14    400.23318     87.30165    2930.9866    98540.745    22.216575    20.249768    16.201916 
     750   -192981.91   -193386.77    404.85653    88.310127    2921.6551    98540.745     22.21627    20.253022    16.091221 
     760   -192981.91   -193391.45    409.53879    89.331455    2911.7221    98540.745    22.215965    20.256276    15.980523 
     770   -192981.91   -193396.58    414.66457    90.449525    2900.5086    98540.745     22.21566     20.25953     15.86982 
     780   -192981.91   -193402.17    420.26461    91.671046    2887.7803    98540.745    22.215354    20.262784    15.759113 
     790   -192981.91   -193407.82    425.90857    92.902145    2874.0004    98540.745    22.215049    20.266037      15.6484 
     800   -192981.91   -193413.17    431.26006    94.069449    2860.0758    98540.745    22.214743    20.269291     15.53768 
     810   -192981.91   -193418.38    436.46967    95.205805    2846.8193    98540.745    22.214438    20.272545    15.426952 
     820   -192981.91   -193423.82     441.9132    96.393186    2834.6748    98540.745    22.214132    20.275798    15.316214 
     830   -192981.91    -193429.6    447.69481    97.654312    2823.7402    98540.745    22.213826    20.279051    15.205466 
     840   -192981.91    -193435.4    453.49061    98.918532     2813.805    98540.745     22.21352    20.282305    15.094704 
     850   -192981.91    -193440.8    458.89314    100.09697    2804.3271    98540.745    22.213214    20.285558    14.983927 
     860   -192981.91   -193445.81    463.89406     101.1878    2794.5476    98540.745    22.212907     20.28881    14.873133 
     870   -192981.91   -193450.82    468.90377    102.28056    2783.7383    98540.745      22.2126    20.292063    14.762319 
     880   -192981.91   -193456.06    474.15011    103.42493    2772.0843    98540.745    22.212295    20.295316    14.651477 
     890   -192981.91   -193461.29    479.37855    104.56539    2760.2708    98540.745    22.211991    20.298571    14.540602 
     900   -192981.91   -193466.09    484.18296    105.61336    2748.9588    98540.745    22.211686    20.301829    14.429684 
     910   -192981.91   -193470.43    488.52165    106.55975    2739.1287    98540.745    22.211383    20.305089    14.318715 
     920   -192981.91   -193474.59    492.67951    107.46669    2731.0854    98540.745    22.211081    20.308351    14.207688 
     930   -192981.91    -193478.8    496.88868    108.38482    2724.6669    98540.745    22.210778    20.311611    14.096602 
     940    -192981.9   -193482.86    500.95595      109.272    2719.8654    98540.745     22.21047    20.314864    13.985465 
     950    -192981.9   -193486.28    504.38083    110.01906    2716.0884    98540.745    22.210151    20.318098    13.874306 
     960   -192981.85   -193488.64    506.78654    110.54381    2712.4578    98540.745    22.209812    20.321298    13.763188 
     970   -192981.85   -193490.09    508.23981    110.86081    2710.6645    98540.745     22.20944    20.324442      13.6522 
     980   -192981.85   -193489.99    508.14509    110.84015    2711.0623    98540.745    22.208981    20.327501     13.54154 
     990   -192981.13   -193485.22    504.09762    109.95729    2726.7833    98540.745    22.208232    20.330457    13.431723 
    1000    -192981.1   -193475.01     493.9072    107.73448      2788.25    98540.745    22.206339    20.333315     13.32458 
    1010   -192981.08   -193478.59    497.50163    108.51852    2738.6043    98540.745    22.201763    20.336122    13.223171 
    1020   -192981.78   -193479.05    497.27015    108.46803    2720.3338    98540.745    22.195835    20.338475    13.125879 
    1030    -192981.9   -193476.68    494.77749    107.92431    2722.4477    98540.745    22.190231    20.339725    13.031273 
    1040    -192981.9   -193473.67    491.77023    107.26835    2705.4083    98540.745    22.185575    20.339466    12.939581 
    1050   -192981.89   -193465.98    484.08989    105.59306     2690.076    98540.745    22.181793    20.338001    12.850549 
    1060   -192981.88   -193453.25    471.36807    102.81809    2684.8558    98540.745     22.17849    20.335885      12.7638 
    1070   -192981.92   -193438.75    456.82656    99.646192    2683.7415    98540.745    22.175351    20.333376    12.679322 
    1080   -192981.92   -193424.27    442.35142    96.488774    2685.3465    98540.745    22.172089    20.330506     12.59734 
    1090   -192981.92   -193411.04    429.11814    93.602238    2689.6949    98540.745    22.168393    20.327186    12.518173 
    1100   -192981.91   -193399.95    418.03731     91.18521    2697.3571    98540.745    22.163903    20.323203    12.442134 
    1110   -192981.88   -193390.99    409.11227    89.238419    2708.0303    98540.745    22.158221    20.318223    12.369467 
    1120   -192981.83   -193383.59    401.76597    87.635993    2721.4388    98540.745    22.150979    20.311911    12.300355 
    1130   -192981.81    -193378.8    396.98795    86.593778      2734.31    98540.745    22.141907    20.304021    12.234964 
    1140   -192980.38    -193372.3    391.91334    85.486868    2808.3862    98540.745    22.130799    20.294449    12.173519 
    1150   -192980.38   -193359.04      378.663    82.596611    2840.3433    98540.745     22.11742    20.283226    12.116194 
    1160   -192981.54   -193337.23    355.69062    77.585716    2843.7297    98540.745    22.100233    20.272103    12.065142 
    1170   -192981.59   -193340.82    359.22995     78.35774    2830.1261    98540.745    22.080068    20.260415    12.019685 
    1180   -192981.65      -193353    371.34677    81.000746    2856.3278    98540.745    22.059081    20.246208    11.978944 
    1190   -192981.74   -193370.12    388.37913    84.715963    2866.8849    98540.745    22.038581    20.228659    11.943181 
    1200   -192981.78   -193376.14    394.36293     86.02119    2882.7361    98540.745    22.018574    20.208412    11.912511 
    1210   -192981.79   -193376.66    394.87112    86.132041    2873.2909    98540.745    21.998902    20.186502    11.887478 
    1220   -192981.82   -193373.18    391.36735    85.367774    2840.2169    98540.745    21.980084    20.162722    11.867682 
    1230   -192981.79   -193360.64    378.84984    82.637367    2812.1396    98540.745    21.962428    20.136171    11.851367 
    1240   -192981.78   -193345.07    363.29524    79.244488    2792.8843    98540.745    21.945896    20.106249    11.837223 
    1250   -192981.77   -193328.03    346.26395    75.529505    2770.7141    98540.745    21.930159    20.072592    11.824588 
    1260   -192981.76    -193317.8    336.03984    73.299352    2794.6404    98540.745    21.914253    20.034869    11.812337 
    1270   -192981.79   -193320.39    338.60003    73.857797    2810.6756    98540.745    21.898055    19.993256    11.800387 
    1280    -192981.8    -193328.1    346.29662    75.536632    2813.0595    98540.745    21.882154    19.948324    11.788675 
    1290   -192981.83   -193343.54    361.71013    78.898735    2814.6388    98540.745    21.866759    19.900761    11.776376 
    1300      -192982   -193376.31    394.30698    86.008987    2865.8274    98540.745    21.852426    19.851325    11.762997 
    1310   -192981.83   -193386.98    405.14487    88.373021    2883.9036    98540.745    21.840404    19.800573    11.749343 
    1320   -192981.83   -193391.86    410.03839    89.440431     2902.129    98540.745    21.830579    19.748743    11.737138 
    1330   -192981.79   -193384.77    402.98047    87.900908     2925.864    98540.745    21.822166    19.696064    11.726845 
    1340   -192981.77    -193379.3    397.53014    86.712045    2927.8864    98540.745    21.813826    19.642284    11.718937 
    1350   -192981.77    -193379.4    397.63671     86.73529    2907.8779    98540.745    21.805558    19.587654    11.713298 
    1360   -192981.58   -193365.09    383.51001    83.653876    2928.0586    98540.745    21.798891    19.533494    11.710008 
    1370   -192981.76   -193358.97    377.21261    82.280244    2927.9164    98540.745    21.794696    19.481354     11.71042 
    1380   -192981.84   -193356.23     374.3827    81.662962    2987.2325    98540.745    21.792286    19.431031    11.713716 
    1390   -192981.73   -193317.49    335.75936    73.238172    3035.8587    98540.745    21.791157    19.384064    11.724264 
    1400    -192981.8   -193340.84     359.0456    78.317528    3015.3367    98540.745    21.790925    19.342258    11.747018 
    1410    -192981.8    -193359.3    377.50013    82.342959    2994.7919    98540.745    21.791738    19.305461    11.778794 
    1420   -192981.79   -193349.18     367.3989    80.139609    2981.6453    98540.745    21.795632    19.273113    11.813555 
    1430   -192981.78   -193348.14    366.36134    79.913289    2977.4271    98540.745    21.803027    19.241623    11.850284 
    1440   -192981.83   -193353.94    372.11472    81.168255     2976.347    98540.745    21.814489    19.208131    11.888359 
    1450   -192981.83   -193342.02    360.18968    78.567084    2988.6927    98540.745    21.829542    19.174946    11.927616 
    1460   -192981.76   -193322.48    340.72082      74.3204    2996.0257    98540.745    21.847726    19.149555    11.968659 
    1470   -192981.84   -193356.63    374.78755    81.751272    2967.0408    98540.745    21.868896    19.135295    12.012103 
    1480   -192981.81   -193364.65     382.8428    83.508339    2942.1665    98540.745    21.892199    19.126392    12.058212 
    1490    -192981.8   -193368.35    386.54752     84.31644    2923.1563    98540.745    21.917086    19.115834    12.107604 
    1500   -192981.83   -193384.88    403.04367    87.914693     2874.813    98540.745    21.943108    19.102583    12.160618 
    1510   -192981.82    -193387.4    405.57293    88.466394    2844.6149    98540.745     21.96968    19.089041    12.215863 
    1520   -192981.82   -193372.56    390.73768    85.230424    2789.0809    98540.745    21.996391    19.076361    12.271457 
    1530   -192981.79   -193359.05    377.26636    82.291968    2782.7651    98540.745    22.023073    19.065696    12.326459 
    1540   -192981.79   -193357.52    375.72429    81.955601    2779.8309    98540.745    22.049679    19.056809    12.381207 
    1550   -192981.79   -193359.15    377.36217    82.312865    2765.2703    98540.745    22.076204    19.048818    12.436904 
    1560   -192981.78   -193361.12    379.33796     82.74384    2753.6771    98540.745    22.102563    19.041463    12.493837 
    1570   -192981.78   -193364.05    382.26953    83.383294    2744.6323    98540.745    22.128667     19.03458    12.551988 
    1580   -192981.78   -193368.13    386.34468    84.272193    2739.8546    98540.745    22.154455    19.028078     12.61125 
    1590   -192981.79   -193372.63    390.83768    85.252238     2738.831    98540.745    22.179898    19.021892    12.671503 
    1600   -192981.79   -193375.99    394.19977    85.985602    2740.3708    98540.745    22.205006    19.015975    12.732631 
    1610    -192981.8   -193377.22    395.42022    86.251814    2742.2479    98540.745     22.22982    19.010299    12.794531 
    1620    -192981.8   -193377.43    395.63599    86.298878    2747.0906    98540.745    22.254407    19.004848    12.857116 
    1630    -192981.8   -193378.88    397.08168    86.614224    2726.0572    98540.745    22.278842    18.999622    12.920401 
    1640   -192981.79   -193379.43    397.63957    86.735914    2701.6687    98540.745    22.303206    18.994546     12.98395 
    1650   -192981.79   -193378.84    397.04936    86.607173    2688.9345    98540.745    22.327566    18.989525    13.047262 
    1660   -192981.78   -193376.83    395.04973    86.170999    2676.6081    98540.745     22.35198    18.984519    13.110194 
    1670   -192981.78   -193374.61    392.82642    85.686035    2667.4812    98540.745    22.376501    18.979494    13.172636 
    1680   -192981.78   -193373.45    391.67341    85.434534    2663.0991    98540.745    22.401178    18.974425    13.234497 
    1690   -192981.78   -193373.46    391.67803    85.435541    2663.4083    98540.745    22.426055    18.969289    13.295706 
    1700   -192981.79   -193373.43     391.6464    85.428642    2666.9575    98540.745    22.451164    18.964069    13.356201 
    1710   -192981.79    -193372.1    390.31076    85.137302    2671.0896    98540.745     22.47653    18.958743    13.415929 
    1720   -192981.79   -193369.78    387.98112    84.629146    2673.0787    98540.745    22.502166    18.953285     13.47484 
    1730   -192981.79    -193368.1    386.30977    84.264578    2671.3279    98540.745    22.528078    18.947666    13.532898 
    1740   -192981.79   -193367.46    385.66939    84.124894      2665.78    98540.745    22.554266    18.941852    13.590078 
    1750   -192981.79    -193366.2    384.41035    83.850265    2657.0117    98540.745    22.580722    18.935815    13.646375 
    1760   -192981.78   -193363.25      381.471    83.209112    2647.5759    98540.745    22.607437    18.929538    13.701801 
    1770   -192981.78   -193359.57    377.78777      82.4057    2640.4214    98540.745    22.634396    18.923013    13.756377 
    1780   -192981.78   -193356.75    374.97135    81.791363    2637.6386    98540.745    22.661585    18.916242    13.810137 
    1790   -192981.78   -193355.44    373.66609    81.506651    2639.8156    98540.745     22.68899    18.909232    13.863119 
    1800   -192981.78   -193354.81    373.02903    81.367692    2645.9993    98540.745    22.716595    18.901995    13.915365 
    1810   -192981.79   -193353.27    371.48165    81.030166    2653.8334    98540.745    22.744385    18.894542     13.96692 
    1820   -192981.79   -193350.25      368.459    80.370844    2660.2676    98540.745    22.772345    18.886891    14.017828 
    1830   -192981.79   -193347.19    365.39358    79.702194    2662.9601    98540.745     22.80046    18.879057    14.068134 
    1840   -192981.79   -193345.55    363.76048     79.34597    2661.0229    98540.745    22.828717    18.871058    14.117878 
    1850   -192981.79   -193344.48    362.69103    79.112694    2654.9132    98540.745    22.857101     18.86291    14.167095 
    1860   -192981.78    -193342.2    360.41407    78.616028    2646.5222    98540.745    22.885598    18.854632    14.215818 
    1870   -192981.78   -193338.66    356.88216    77.845624    2638.9606    98540.745    22.914197    18.846238    14.264076 
    1880   -192981.78   -193335.34    353.56411    77.121868    2634.4293    98540.745    22.942884    18.837743    14.311901 
    1890   -192981.78   -193333.43    351.65211    76.704809    2634.4827    98540.745    22.971648    18.829159    14.359318 
    1900   -192981.78   -193332.75     350.9718    76.556414    2638.9245    98540.745    23.000476    18.820497    14.406354 
    1910   -192981.78   -193331.91    350.12531    76.371772    2646.0551    98540.745    23.029356    18.811766    14.453033 
    1920   -192981.79   -193329.65    347.86566    75.878881    2653.2541    98540.745    23.058279    18.802975     14.49938 
    1930   -192981.79   -193326.56    344.77002     75.20364    2657.2986    98540.745    23.087236    18.794128     14.54542 
    1940   -192981.79   -193324.48     342.6891    74.749735    2656.8759    98540.745    23.116218    18.785231     14.59118 
    1950   -192981.79   -193323.71    341.92124    74.582243    2651.8311    98540.745     23.14522    18.776291    14.636679 
    1960   -192981.78   -193322.52    340.73544    74.323589    2643.3612    98540.745    23.174234    18.767313    14.681942 
    1970   -192981.78   -193319.92     338.1406    73.757583    2634.0211    98540.745    23.203257    18.758301    14.726987 
    1980   -192981.77   -193316.89    335.11333    73.097255    2626.7223    98540.745    23.232285    18.749259    14.771836 
    1990   -192981.77   -193314.96    333.18268    72.676128    2623.4208    98540.745    23.261316    18.740192    14.816508 
    2000   -192981.78   -193314.63    332.85585    72.604837    2624.6185    98540.745    23.290347    18.731102    14.861018 
    2010   -192981.78   -193314.97    333.19084    72.677907    2629.2824    98540.745    23.319378    18.721993    14.905384 
    2020   -192981.79   -193314.43    332.64046    72.557855    2634.9956    98540.745    23.348408    18.712866    14.949619 
    2030   -192981.79   -193312.61     330.8219    72.161179    2638.7637    98540.745    23.377436    18.703724    14.993738 
    2040   -192981.79   -193311.08    329.29261    71.827598    2638.3921    98540.745    23.406462    18.694569    15.037752 
    2050   -192981.79   -193311.17    329.37678    71.845959     2633.125    98540.745    23.435486    18.685404    15.081674 
    2060   -192981.79    -193311.8    330.01612    71.985415     2623.517    98540.745    23.464508    18.676229    15.125514 
    2070   -192981.78    -193311.3    329.51518    71.876147    2611.5596    98540.745    23.493527    18.667046    15.169282 
    2080   -192981.78   -193309.78    328.00128    71.545924    2600.1946    98540.745    23.522544    18.657856    15.212985 
    2090   -192981.77   -193308.76    326.98222    71.323641    2591.9541    98540.745    23.551559    18.648661    15.256631 
    2100   -192981.77   -193309.33    327.55705    71.449027    2588.0413    98540.745    23.580573    18.639462    15.300228 
    2110   -192981.78   -193311.19     329.4132    71.853902    2588.1392    98540.745    23.609584    18.630259     15.34378 
    2120   -192981.78   -193312.87    331.08998    72.219653    2590.4416    98540.745    23.638594    18.621052    15.387293 
    2130   -192981.79   -193313.23    331.43881    72.295742    2592.0899    98540.745    23.667603    18.611844    15.430771 
    2140   -192981.79   -193312.99    331.20525    72.244797    2590.3834    98540.745    23.696611    18.602633    15.474218 
    2150   -192981.79      -193314    332.21541     72.46514    2583.9465    98540.745    23.725619    18.593421    15.517638 
    2160   -192981.79   -193316.31    334.52471    72.968861    2572.7469    98540.745    23.754625    18.584207    15.561034 
    2170   -192981.78    -193318.1    336.31709    73.359827    2558.3679    98540.745    23.783631    18.574993    15.604407 
    2180   -192981.78   -193318.53    336.74936    73.454116     2542.957    98540.745    23.812637    18.565777    15.647764 
    2190   -192981.77   -193318.66    336.88585    73.483889     2529.716    98540.745    23.841643    18.556562    15.691108 
    2200   -192981.77   -193319.98    338.20229     73.77104    2520.5314    98540.745     23.87065    18.547346    15.734439 
    2210   -192981.78   -193322.85    341.06965    74.396488    2515.8086    98540.745    23.899657     18.53813    15.777758 
    2220   -192981.78   -193326.21    344.43132     75.12976    2514.4298    98540.745    23.928664    18.528914    15.821065 
    2230   -192981.78   -193328.53    346.74929    75.635371    2513.9277    98540.745    23.957672    18.519697     15.86436 
    2240   -192981.79   -193329.58    347.79057    75.862503    2511.3612    98540.745     23.98668     18.51048    15.907645 
    2250   -192981.79   -193330.98     349.1945    76.168738    2504.6878    98540.745    24.015688    18.501263    15.950918 
    2260   -192981.79    -193333.9    352.10905     76.80448    2493.2987    98540.745    24.044696    18.492046    15.994182 
    2270   -192981.78   -193337.08    355.29078    77.498502     2477.902    98540.745    24.073705    18.482828    16.037436 
    2280   -192981.78    -193338.9    357.11612    77.896655     2460.632    98540.745    24.102713     18.47361     16.08068 
    2290   -192981.78   -193339.64    357.86563    78.060146     2444.488    98540.745    24.131722    18.464393    16.123916 
    2300   -192981.77   -193340.84    359.06529    78.321824    2431.9445    98540.745    24.160731    18.455174    16.167142 
    2310   -192981.77   -193343.48    361.70608    78.897851    2424.1074    98540.745     24.18974    18.445956    16.210361 
    2320   -192981.78   -193347.12     365.3415    79.690833     2420.565    98540.745     24.21875    18.436737    16.253571 
    2330   -192981.78   -193350.24    368.45641     80.37028    2419.4191    98540.745    24.247759    18.427519    16.296773 
    2340   -192981.79   -193351.79    370.00365    80.707774     2417.784    98540.745    24.276768      18.4183    16.339968 
    2350   -192981.79   -193352.68    370.88723    80.900508    2413.0615    98540.745    24.305778    18.409081    16.383156 
    2360   -192981.79   -193354.67     372.8844    81.336143    2403.9977    98540.745    24.334788    18.399862    16.426338 
    2370   -192981.79   -193357.62    375.82924    81.978494    2390.6901    98540.745    24.363797    18.390642    16.469512 
    2380   -192981.78   -193359.65     377.8687    82.423354    2374.6147    98540.745    24.392807    18.381423    16.512681 
    2390   -192981.78   -193360.09    378.31751     82.52125    2358.5207    98540.745    24.421817    18.372203    16.555844 
    2400   -192981.77   -193360.13    378.35633     82.52972    2345.2771    98540.745    24.450827    18.362984    16.599001 
    2410   -192981.77   -193361.19    379.41265    82.760131    2336.6593    98540.745    24.479837    18.353764    16.642152 
    2420   -192981.78   -193363.51    381.73566    83.266842    2332.9431    98540.745    24.508847    18.344544    16.685298 
    2427   -192981.78   -193365.31    383.53416    83.659144    2332.6492    98540.745    24.529155     18.33809    16.715498 
Loop time of 322.997 on 1 procs for 1819 steps with 1539 atoms

Performance: 0.049 ns/day, 493.246 hours/ns, 5.632 timesteps/s
99.2% CPU use with 1 MPI tasks x no OpenMP threads

MPI task timing breakdown:
Section |  min time  |  avg time  |  max time  |%varavg| %total
---------------------------------------------------------------
Pair    | 298.77     | 298.77     | 298.77     |   0.0 | 92.50
Bond    | 0.0010374  | 0.0010374  | 0.0010374  |   0.0 |  0.00
Neigh   | 0.47036    | 0.47036    | 0.47036    |   0.0 |  0.15
Comm    | 0.10011    | 0.10011    | 0.10011    |   0.0 |  0.03
Output  | 0.11421    | 0.11421    | 0.11421    |   0.0 |  0.04
Modify  | 23.525     | 23.525     | 23.525     |   0.0 |  7.28
Other   |            | 0.01471    |            |       |  0.00

Nlocal:    1539 ave 1539 max 1539 min
Histogram: 1 0 0 0 0 0 0 0 0 0
Nghost:    5964 ave 5964 max 5964 min
Histogram: 1 0 0 0 0 0 0 0 0 0
Neighs:    312153 ave 312153 max 312153 min
Histogram: 1 0 0 0 0 0 0 0 0 0

Total # of neighbors = 312153
Ave neighs/atom = 202.828
Ave special neighs/atom = 0
Neighbor list builds = 18
Dangerous builds not checked

#Exit the simulation
unfix		qeq
unfix		dyn
unfix		frags
unfix		bonds
clear



Please see the log.cite file for references relevant to this simulation

Total wall time: 0:07:35
