Job init started on hpc-80-33.cm.cluster at Wed Apr 19 17:42:11 2023
jobid: hpc-80-33-0-64408a60

  +--------------------------------------------------------------------+
  |  Jaguar version 11.7, release 121                                  |
  |                                                                    |
  |  Copyright Schrodinger, Inc.                                       |
  |  All Rights Reserved.                                              |
  |                                                                    |
  |  The following have contributed to Jaguar (listed alphabetically): |
  |  Mike Beachy, Art Bochevarov, Dale Braden, Yixiang Cao,            |
  |  Alan Chien, Chris Cortis, Rich Friesner, Bill Goddard,            |
  |  Hod Greeley, Tom Hughes, Leif Jacobson, Jean-Marc Langlois,       |
  |  Daniel Levine, Daniel Mainz, Rob Murphy, Dean Philipp,            |
  |  Tom Pollard, Murco Ringnalda, Mark Watson, Haoyu Yu.              |
  |                                                                    |
  |  Use of this program should be acknowledged in publications as:    |
  |                                                                    |
  |  Jaguar, version 11.7, Schrodinger, Inc., New York, NY, 2022.      |
  |                                                                    |
  |  A. D. Bochevarov, E. Harder, T. F. Hughes, J. R. Greenwood,       |
  |  D. A. Braden, D. M. Philipp, D. Rinaldo, M. D. Halls,             |
  |  J. Zhang, R. A. Friesner, "Jaguar: A High-Performance Quantum     |
  |  Chemistry Software Program with Strengths in Life and Materials   |
  |  Sciences", Int. J. Quantum Chem., 2013, 113(18), 2110-2142.       |
  +--------------------------------------------------------------------+
  
  start of program pre
  
  Job name: init
  Executables used: /central/groups/wag/programs/Schrodinger_2022_3/jaguar-v11.7/bin/Linux-x86_64
  Temporary files : /central/scratch/musgrave/pkozlows/init
  Maestro file (input):  init.mae
  Maestro file (output): init.01.mae
  
 Contents of input file: &gen section only
 ----------------Contents start----------------
&gen
basis=6-31G**
igeopt=1
multip=2
dftname=PBE-D3
ifreq=1
&
 -----------------Contents end-----------------
 
  basis set:               6-31g**                         
  net molecular charge:    0
  multiplicity:            2
  
  number of basis functions....           15
  
 Input geometry:
                                   angstroms
  atom               x                 y                 z
  H1           -3.5221757265      1.9753672425      7.7525267812 
  H2           -2.7722056331      1.9820649233      7.7525267812 
  H3           -0.2727793626      2.0356216090      7.7525310721 
   
  principal moments of inertia:
        amu*angstrom^2:                 0.00003                 5.83686                 5.83689
                g*cm^2:          5.28565463E-45          9.69232702E-40          9.69237988E-40
   
  rotational constants:
               cm^(-1):        infinite      2.88813493      2.88811918
                   GHz:        infinite     86.58410707     86.58363489
   
  Warning: atom           3  is not bonded to any other atoms
  Molecular weight:       3.02 amu
   
  Stoichiometry: H3
  Molecule is linear 
  Molecular Point Group: Cs      
	Molecule translated to center of mass 
	Molecule reoriented along symmetry axes
  Point Group used: Cs
  
  detected            2  molecular fragments
 
Number of optimization coordinates:     4
Number of independent coordinates:      4
Number of non-redundant coordinates:    4
Number of frozen coordinates:           0
Number of harmonic constraints:         0
 
Number of geometric degrees of freedom:     4
Maximum geometric degrees of freedom:       2
 " " " " " excluding dummy atoms:           2
 
  
 Symmetrized geometry:
                                   angstroms
  atom               x                 y                 z
  H1           -0.0223173491      1.3331221525      0.0000000000 
  H2           -0.0156196683      0.5831520590      0.0000000000 
  H3            0.0379370174     -1.9162742114      0.0000000000 
   
  Warning: atom           3  is not bonded to any other atoms
  nuclear repulsion energy.......             1.080066512 hartrees
 
 Non-default options chosen:
   SCF calculation type: UDFT(pbe-d3)                
   UDFT=PBE(X+LC)+PW91 (PBE-D3)
   Geometry will be optimized in redundant internal coordinates
   Vibrational frequencies and related properties will be computed
      from analytic second derivatives
   IR intensities will be computed
   Thermochemical properties will be computed
   Scaling standard convergence criteria by a factor of   1.00
  
 Temporary integer options set:
     73=  1
  
  end of program pre
   
 Time(pre)  user:        2.5  user+sys:        2.5  wallclock:        3.1
  
  start of program onee
  
  smallest eigenvalue of S:    8.941E-02
  number of canonical orbitals.....           15
  end of program onee
   
 Time(onee)  user:        0.3  user+sys:        0.3  wallclock:        0.4
  
  start of program hfig
  
  initial wavefunction generated automatically from atomic wavefunctions
  
  -------------------
  Alpha orbital space
  -------------------
 
  Irreducible     Total no   No of occupied orbitals 
  representation  orbitals   Shell_1  Shell_2    ...
  Ap                12          2
  App                3          0
  ------------------------
  Orbital occupation/shell    1.000
 
  ------------------
  Beta orbital space
  ------------------
 
  Irreducible     Total no   No of occupied orbitals 
  representation  orbitals   Shell_1  Shell_2    ...
  Ap                12          1
  App                3          0
  ------------------------
  Orbital occupation/shell    1.000
 
  
  
    Unrestricted Spin Properties ...
    Sz*(Sz+1) ..............     0.750
    <S**2> of initial guess      0.750
  
  
  end of program hfig
   
 Time(hfig)  user:        0.2  user+sys:        0.2  wallclock:        0.4
  
  start of program probe
  
  end of program probe
   
 Time(probe)  user:        0.2  user+sys:        0.2  wallclock:        0.3
  
  start of program grid
  
   grid     grid set  grid #  grid sym
  ------    --------  ------  --------
  coarse        0        0        1
  medium        2        1        2
  fine          0        0        1
  ultrafine     4        2        2
  charge        0        0        1
  gradient      4        2        2
  density       0        0        1
  DFT-fine    -11        3        2
  DFT-med.    -10        4        2
  DFT-grad    -12        5        2
  DFT-der2     -8        6        2
  DFT-cphf     -9        7        2
  LMP2-enrg     4        2        2
  LMP2-grad     2        1        2
  DFT-cphf2   -15        8        2
  PBF-dens      0        0        1
  plotting      0        0        1
  Rel-grad    -17        0        1
  
  number of gridpoints: 
     atom        H1       H2       H3    total
  grid # 1       65       64       82      211
  grid # 2      257      244      315      816
  grid # 3     2430     2430     2430     7290
  grid # 4      756      756      756     2268
  grid # 5     3001     3001     3001     9003
  grid # 6     7413     7413     7413    22239
  grid # 7      464      464      464     1392
  grid # 8      245      245      245      735
   
  end of program grid
   
 Time(grid)  user:        0.2  user+sys:        0.2  wallclock:        0.4
  
  start of program rwr
  
  end of program rwr
   
 Time(rwr)  user:        0.2  user+sys:        0.2  wallclock:        0.3
  
  start of program scf
  
 number of electrons..........          3
 number of alpha electrons....          2
 number of beta electrons.....          1
 number of alpha orbitals.....         15
 number of beta orbitals......         15
 number of alpha occupied orb..         2
 number of alpha virtual orb...        13
 number of beta occupied orb...         1
 number of beta virtual orb....        14
 SCF type: UDFT=PBE(X+LC)+PW91 (PBE-D3)
 Energy computed with NOPS off.
 Convergence Criterion:
    Energy (econv):       1.00E-05
    RMS density (dconv):  5.00E-06
  
       i  u  d  i  g                   
       t  p  i  c  r                                 RMS    maximum
       e  d  i  u  i                       energy  density   DIIS  
       r  t  s  t  d       total energy    change  change    error 
  
etot    1  N  N  5  M      -1.61769130328           8.8E-03  1.2E-01
etot    2  Y  Y  6  M      -1.66081852812  4.3E-02  1.9E-03  1.7E-02
etot    3  N  Y  2  U      -1.66239549182  1.6E-03  9.8E-05  1.2E-03
etot    4  Y  Y  6  M      -1.66239890073  3.4E-06  3.2E-05  2.1E-04
etot    5  N  Y  2  U      -1.66239934889  4.5E-07  1.1E-05  1.1E-04
etot    6  N  Y  2  U      -1.66239937527  2.6E-08  3.9E-07  8.3E-06
etot    7  N  N  2  U      -1.66239937545  1.8E-10  0.0E+00  0.0E+00
 
  Computing the dispersion energy correction and its gradients...
  
  
 Energy components, in hartrees:
   (A)  Nuclear repulsion............       1.08006651182
   (E)  Total one-electron terms.....      -3.73853609067
   (I)  Total two-electron terms.....       0.99607020340
   (L)  Electronic energy............      -2.74246588727  (E+I)
   (N0) D3 correction................      -0.00021495484
   (N)  Total energy.................      -1.66261433029  (A+L+N0)
   (O)  Gas phase energy.............      -1.66261433029
  
                                 Total             Coulomb       Exchange+Corr.
 Total two-electron terms       0.99607020340       2.00068669083      -1.00461648743
   Hamiltonian  1........       0.82819011522       1.25135938167      -0.42316926645
   Hamiltonian  2........       0.52816504194       0.74932730916      -0.22116226722
  
 SCFE: SCF energy: UDFT(pbe-d3)        -1.66261433029 hartrees   iterations:   7
  
 
 Alpha HOMO energy:    -0.27290
 Alpha LUMO energy:     0.08389
 
  Alpha Orbital energies (hartrees)/symmetry label: 
    -0.37720 Ap         -0.27290 Ap          0.08389 Ap          0.53992 Ap     
     0.70638 Ap          1.00615 Ap          1.61031 App         1.61031 Ap     
     1.87152 App         1.87152 Ap          1.89207 Ap          2.29646 Ap     
 
 
 Beta HOMO energy:    -0.37573
 Beta LUMO energy:     0.02202
 
  Beta Orbital energies (hartrees)/symmetry label: 
    -0.37573 Ap          0.02202 Ap          0.12273 Ap          0.55972 Ap     
     0.98204 Ap          1.13762 Ap          1.61093 App         1.61093 Ap     
     2.29218 Ap          2.33691 App         2.33691 Ap     
 
  
  
    Unrestricted Spin Properties ...
    Sz*(Sz+1)      0.750
    <S**2> ...     0.750
  
  
  end of program scf
   
 Time(scf)  user:        2.5  user+sys:        2.5  wallclock:        3.1
  
  start of program der1a
  
  end of program der1a
   
 Time(der1a)  user:        0.2  user+sys:        0.2  wallclock:        0.3
  
  start of program rwr
  
  end of program rwr
   
 Time(rwr)  user:        0.2  user+sys:        0.2  wallclock:        0.3
  
  start of program der1b
  
   
  forces (hartrees/bohr) : total     
   
 atom  label           x              y              z
 ---- --------   -------------  -------------  -------------
    1 H1         -1.236848E-05   6.187551E-04   0.000000E+00
    2 H2          1.117945E-05  -5.091496E-04   0.000000E+00
    3 H3          4.123197E-06  -1.940882E-04   0.000000E+00
 -------------   -------------  -------------  -------------
     total        2.934167E-06  -8.448265E-05   0.000000E+00
   
  end of program der1b
   
 Time(der1b)  user:        0.2  user+sys:        0.2  wallclock:        0.3
  
  start of program geopt
  
 ----------------------------------------------------------------------------
  Geometry optimization step   1
  Total energy:        -1.66261433029 hartrees
 ----------------------------------------------------------------------------
  detected            2  molecular fragments
  
  gradient maximum:        6.4702E-04 .  (  4.5000E-04 )
  gradient rms:            3.3401E-04 .  (  3.0000E-04 )
  displacement maximum:    1.1829E-02 .  (  1.8000E-03 )
  displacement rms:        5.9791E-03 .  (  1.2000E-03 )
  
  predicted energy change:  -1.5489E-06
  step size:     0.01196
  trust radius:  0.30000
  
  molecular structure not yet converged...
  
  center of mass moved by:
     x:    -1.8141E-08     y:     2.4668E-10     z:     0.0000E+00
  
  new geometry: 
                                   angstroms
  atom               x                 y                 z
  H1           -0.0223808250      1.3358263124      0.0000000000 
  H2           -0.0156403922      0.5849293920      0.0000000000 
  H3            0.0380212171     -1.9207557045      0.0000000000 
   
  Warning: atom           3  is not bonded to any other atoms
  nuclear repulsion energy.......             1.078307384 hartrees
  -------------------------------------------------
 /  end of geometry optimization iteration   1   /
 -------------------------------------------------
   
  end of program geopt
   
 Time(geopt)  user:        0.3  user+sys:        0.3  wallclock:        0.4
  
  start of program onee
  
  smallest eigenvalue of S:    8.968E-02
  number of canonical orbitals.....           15
  end of program onee
   
 Time(onee)  user:        0.2  user+sys:        0.2  wallclock:        0.3
  
  start of program probe
  
  end of program probe
   
 Time(probe)  user:        0.2  user+sys:        0.2  wallclock:        0.2
  
  start of program grid
  
   grid     grid set  grid #  grid sym
  ------    --------  ------  --------
  coarse        0        0        1
  medium        2        1        2
  fine          0        0        1
  ultrafine     4        2        2
  charge        0        0        1
  gradient      4        2        2
  density       0        0        1
  DFT-fine    -11        3        2
  DFT-med.    -10        4        2
  DFT-grad    -12        5        2
  DFT-der2     -8        6        2
  DFT-cphf     -9        7        2
  LMP2-enrg     4        2        2
  LMP2-grad     2        1        2
  DFT-cphf2   -15        8        2
  PBF-dens      0        0        1
  plotting      0        0        1
  Rel-grad    -17        0        1
  
  number of gridpoints: 
     atom        H1       H2       H3    total
  grid # 1       65       64       82      211
  grid # 2      257      244      315      816
  grid # 3     2430     2430     2430     7290
  grid # 4      756      756      756     2268
  grid # 5     3001     3001     3001     9003
  grid # 6     7413     7413     7413    22239
  grid # 7      464      464      464     1392
  grid # 8      245      245      245      735
   
  end of program grid
   
 Time(grid)  user:        0.2  user+sys:        0.2  wallclock:        0.4
  
  start of program rwr
  
  end of program rwr
   
 Time(rwr)  user:        0.2  user+sys:        0.2  wallclock:        0.3
  
  start of program scf
  
 Energy computed with NOPS off.
 Convergence Criterion:
    Energy (econv):       1.00E-05
    RMS density (dconv):  5.00E-06
  
       i  u  d  i  g                   
       t  p  i  c  r                                 RMS    maximum
       e  d  i  u  i                       energy  density   DIIS  
       r  t  s  t  d       total energy    change  change    error 
  
etot    1  N  N  2  U      -1.66240201832           2.6E-05  2.0E-04
etot    2  N  Y  2  U      -1.66240213931  1.2E-07  4.9E-06  5.5E-05
etot    3  N  N  2  U      -1.66240214804  8.7E-09  0.0E+00  0.0E+00
 
  Computing the dispersion energy correction and its gradients...
  
  
 Energy components, in hartrees:
   (A)  Nuclear repulsion............       1.07830738369
   (E)  Total one-electron terms.....      -3.73557301437
   (I)  Total two-electron terms.....       0.99486348264
   (L)  Electronic energy............      -2.74070953173  (E+I)
   (N0) D3 correction................      -0.00021444231
   (N)  Total energy.................      -1.66261659035  (A+L+N0)
   (O)  Gas phase energy.............      -1.66261659035
  
                                 Total             Coulomb       Exchange+Corr.
 Total two-electron terms       0.99486348264       1.99917966091      -1.00431617827
   Hamiltonian  1........       0.82731529734       1.25037657506      -0.42306127773
   Hamiltonian  2........       0.52772726129       0.74880308585      -0.22107582455
  
 SCFE: SCF energy: UDFT(pbe-d3)        -1.66261659035 hartrees   iterations:   3
  
 
 Alpha HOMO energy:    -0.27291
 Alpha LUMO energy:     0.08351
 
  Alpha Orbital energies (hartrees)/symmetry label: 
    -0.37701 Ap         -0.27291 Ap          0.08351 Ap          0.54015 Ap     
     0.70601 Ap          1.00551 Ap          1.61042 App         1.61042 Ap     
     1.87153 App         1.87153 Ap          1.89159 Ap          2.29470 Ap     
 
 
 Beta HOMO energy:    -0.37557
 Beta LUMO energy:     0.02270
 
  Beta Orbital energies (hartrees)/symmetry label: 
    -0.37557 Ap          0.02270 Ap          0.12264 Ap          0.55993 Ap     
     0.98127 Ap          1.13900 Ap          1.61103 App         1.61104 Ap     
     2.29073 Ap          2.33875 App         2.33875 Ap     
 
  
  
    Unrestricted Spin Properties ...
    Sz*(Sz+1)      0.750
    <S**2> ...     0.750
  
  
  end of program scf
   
 Time(scf)  user:        2.4  user+sys:        2.4  wallclock:        2.9
  
  start of program der1a
  
  end of program der1a
   
 Time(der1a)  user:        0.2  user+sys:        0.2  wallclock:        0.3
  
  start of program rwr
  
  end of program rwr
   
 Time(rwr)  user:        0.2  user+sys:        0.2  wallclock:        0.3
  
  start of program der1b
  
   
  forces (hartrees/bohr) : total     
   
 atom  label           x              y              z
 ---- --------   -------------  -------------  -------------
    1 H1         -6.452420E-06  -2.858767E-05   0.000000E+00
    2 H2          5.504449E-06   1.258799E-04   0.000000E+00
    3 H3          3.857635E-06  -1.823669E-04   0.000000E+00
 -------------   -------------  -------------  -------------
     total        2.909664E-06  -8.507463E-05   0.000000E+00
   
  end of program der1b
   
 Time(der1b)  user:        0.2  user+sys:        0.2  wallclock:        0.4
  
  start of program geopt
  
 ----------------------------------------------------------------------------
  Geometry optimization step   2
  Total energy:        -1.66261659035 hartrees
 ----------------------------------------------------------------------------
  detected            2  molecular fragments
  
  energy change:          -2.2601E-06 #  (  5.0000E-05 )
  gradient maximum:        1.5403E-04 *  (  4.5000E-04 )
  gradient rms:            7.7149E-05 *  (  3.0000E-04 )
  displacement maximum:    4.0680E-02 .  (  1.8000E-03 )
  displacement rms:        2.0366E-02 .  (  1.2000E-03 )
  
  predicted energy change:  -3.1390E-06
  step size:     0.04073
  trust radius:  0.30000
  
  molecular structure not yet converged...
  
  center of mass moved by:
     x:    -6.2123E-08     y:     8.0153E-10     z:     0.0000E+00
  
  new geometry: 
                                   angstroms
  atom               x                 y                 z
  H1           -0.0225838537      1.3437275354      0.0000000000 
  H2           -0.0157128538      0.5917409770      0.0000000000 
  H3            0.0382967075     -1.9354685124      0.0000000000 
   
  Warning: atom           3  is not bonded to any other atoms
  nuclear repulsion energy.......             1.074366674 hartrees
  -------------------------------------------------
 /  end of geometry optimization iteration   2   /
 -------------------------------------------------
   
  end of program geopt
   
 Time(geopt)  user:        0.2  user+sys:        0.2  wallclock:        0.4
  
  start of program onee
  
  smallest eigenvalue of S:    9.027E-02
  number of canonical orbitals.....           15
  end of program onee
   
 Time(onee)  user:        0.2  user+sys:        0.2  wallclock:        0.3
  
  start of program probe
  
  end of program probe
   
 Time(probe)  user:        0.2  user+sys:        0.2  wallclock:        0.3
  
  start of program grid
  
   grid     grid set  grid #  grid sym
  ------    --------  ------  --------
  coarse        0        0        1
  medium        2        1        2
  fine          0        0        1
  ultrafine     4        2        2
  charge        0        0        1
  gradient      4        2        2
  density       0        0        1
  DFT-fine    -11        3        2
  DFT-med.    -10        4        2
  DFT-grad    -12        5        2
  DFT-der2     -8        6        2
  DFT-cphf     -9        7        2
  LMP2-enrg     4        2        2
  LMP2-grad     2        1        2
  DFT-cphf2   -15        8        2
  PBF-dens      0        0        1
  plotting      0        0        1
  Rel-grad    -17        0        1
  
  number of gridpoints: 
     atom        H1       H2       H3    total
  grid # 1       65       64       82      211
  grid # 2      257      244      315      816
  grid # 3     2430     2430     2430     7290
  grid # 4      756      756      756     2268
  grid # 5     3001     3001     3001     9003
  grid # 6     7413     7413     7413    22239
  grid # 7      464      464      464     1392
  grid # 8      245      245      245      735
   
  end of program grid
   
 Time(grid)  user:        0.2  user+sys:        0.2  wallclock:        0.4
  
  start of program rwr
  
  end of program rwr
   
 Time(rwr)  user:        0.2  user+sys:        0.2  wallclock:        0.3
  
  start of program scf
  
 Energy computed with NOPS off.
 Convergence Criterion:
    Energy (econv):       1.00E-05
    RMS density (dconv):  5.00E-06
  
       i  u  d  i  g                   
       t  p  i  c  r                                 RMS    maximum
       e  d  i  u  i                       energy  density   DIIS  
       r  t  s  t  d       total energy    change  change    error 
  
etot    1  N  N  2  U      -1.66240776045           5.8E-05  3.5E-04
etot    2  Y  Y  6  M      -1.66240882769  1.1E-06  7.2E-06  6.3E-05
etot    3  N  Y  2  U      -1.66240824339 -5.8E-07  1.9E-06  1.5E-05
etot    4  N  N  2  U      -1.66240824455  1.2E-09  0.0E+00  0.0E+00
 
  Computing the dispersion energy correction and its gradients...
  
  
 Energy components, in hartrees:
   (A)  Nuclear repulsion............       1.07436667383
   (E)  Total one-electron terms.....      -3.72838586217
   (I)  Total two-electron terms.....       0.99161094378
   (L)  Electronic energy............      -2.73677491839  (E+I)
   (N0) D3 correction................      -0.00021249152
   (N)  Total energy.................      -1.66262073607  (A+L+N0)
   (O)  Gas phase energy.............      -1.66262073607
  
                                 Total             Coulomb       Exchange+Corr.
 Total two-electron terms       0.99161094378       1.99555117000      -1.00394022621
   Hamiltonian  1........       0.82490908468       1.24781233279      -0.42290324811
   Hamiltonian  2........       0.52675159826       0.74773883720      -0.22098723894
  
 SCFE: SCF energy: UDFT(pbe-d3)        -1.66262073607 hartrees   iterations:   4
  
 
 Alpha HOMO energy:    -0.27293
 Alpha LUMO energy:     0.08286
 
  Alpha Orbital energies (hartrees)/symmetry label: 
    -0.37675 Ap         -0.27293 Ap          0.08286 Ap          0.54029 Ap     
     0.70478 Ap          1.00481 Ap          1.61055 App         1.61055 Ap     
     1.87157 App         1.87158 Ap          1.89008 Ap          2.29258 Ap     
 
 
 Beta HOMO energy:    -0.37539
 Beta LUMO energy:     0.02533
 
  Beta Orbital energies (hartrees)/symmetry label: 
    -0.37539 Ap          0.02533 Ap          0.12300 Ap          0.55997 Ap     
     0.98020 Ap          1.14436 Ap          1.61113 App         1.61113 Ap     
     2.28931 Ap          2.34565 App         2.34565 Ap     
 
  
  
    Unrestricted Spin Properties ...
    Sz*(Sz+1)      0.750
    <S**2> ...     0.750
  
  
  end of program scf
   
 Time(scf)  user:        2.4  user+sys:        2.4  wallclock:        3.3
  
  start of program der1a
  
  end of program der1a
   
 Time(der1a)  user:        0.2  user+sys:        0.2  wallclock:        0.3
  
  start of program rwr
  
  end of program rwr
   
 Time(rwr)  user:        0.2  user+sys:        0.2  wallclock:        0.3
  
  start of program der1b
  
   
  forces (hartrees/bohr) : total     
   
 atom  label           x              y              z
 ---- --------   -------------  -------------  -------------
    1 H1          1.094660E-06  -8.077060E-04   0.000000E+00
    2 H2         -1.390928E-06   8.710346E-04   0.000000E+00
    3 H3          3.021530E-06  -1.461556E-04   0.000000E+00
 -------------   -------------  -------------  -------------
     total        2.725262E-06  -8.282710E-05   0.000000E+00
   
  end of program der1b
   
 Time(der1b)  user:        0.2  user+sys:        0.2  wallclock:        0.3
  
  start of program geopt
  
 ----------------------------------------------------------------------------
  Geometry optimization step   3
  Total energy:        -1.66262073607 hartrees
 ----------------------------------------------------------------------------
  detected            2  molecular fragments
  detected            2  molecular fragments
  
  energy change:          -4.1457E-06 *  (  5.0000E-05 )
  gradient maximum:        7.8006E-04 .  (  4.5000E-04 )
  gradient rms:            3.9453E-04 .  (  3.0000E-04 )
  displacement maximum:    4.6227E-02 .  (  1.8000E-03 )
  displacement rms:        2.3117E-02 .  (  1.2000E-03 )
  
  predicted energy change:  -2.4597E-06
  step size:     0.04623
  trust radius:  0.30000
  
  molecular structure not yet converged...
  
  center of mass moved by:
     x:    -7.0206E-08     y:     8.9255E-10     z:     0.0000E+00
  
  new geometry: 
                                   angstroms
  atom               x                 y                 z
  H1           -0.0228104369      1.3521392698      0.0000000000 
  H2           -0.0157929850      0.5997648329      0.0000000000 
  H3            0.0386034219     -1.9519041027      0.0000000000 
   
  Warning: atom           3  is not bonded to any other atoms
  nuclear repulsion energy.......             1.070782767 hartrees
  -------------------------------------------------
 /  end of geometry optimization iteration   3   /
 -------------------------------------------------
   
  end of program geopt
   
 Time(geopt)  user:        0.2  user+sys:        0.2  wallclock:        0.4
  
  start of program onee
  
  smallest eigenvalue of S:    9.077E-02
  number of canonical orbitals.....           15
  end of program onee
   
 Time(onee)  user:        0.2  user+sys:        0.2  wallclock:        0.3
  
  start of program probe
  
  end of program probe
   
 Time(probe)  user:        0.2  user+sys:        0.2  wallclock:        0.3
  
  start of program grid
  
   grid     grid set  grid #  grid sym
  ------    --------  ------  --------
  coarse        0        0        1
  medium        2        1        2
  fine          0        0        1
  ultrafine     4        2        2
  charge        0        0        1
  gradient      4        2        2
  density       0        0        1
  DFT-fine    -11        3        2
  DFT-med.    -10        4        2
  DFT-grad    -12        5        2
  DFT-der2     -8        6        2
  DFT-cphf     -9        7        2
  LMP2-enrg     4        2        2
  LMP2-grad     2        1        2
  DFT-cphf2   -15        8        2
  PBF-dens      0        0        1
  plotting      0        0        1
  Rel-grad    -17        0        1
  
  number of gridpoints: 
     atom        H1       H2       H3    total
  grid # 1       65       64       82      211
  grid # 2      257      244      315      816
  grid # 3     2430     2430     2430     7290
  grid # 4      756      756      756     2268
  grid # 5     3001     3001     3001     9003
  grid # 6     7413     7413     7413    22239
  grid # 7      464      464      464     1392
  grid # 8      245      245      245      735
   
  end of program grid
   
 Time(grid)  user:        0.2  user+sys:        0.2  wallclock:        0.4
  
  start of program rwr
  
  end of program rwr
   
 Time(rwr)  user:        0.2  user+sys:        0.2  wallclock:        0.3
  
  start of program scf
  
 Energy computed with NOPS off.
 Convergence Criterion:
    Energy (econv):       1.00E-05
    RMS density (dconv):  5.00E-06
  
       i  u  d  i  g                   
       t  p  i  c  r                                 RMS    maximum
       e  d  i  u  i                       energy  density   DIIS  
       r  t  s  t  d       total energy    change  change    error 
  
etot    1  N  N  2  U      -1.66241375558           5.8E-05  3.9E-04
etot    2  Y  Y  6  M      -1.66241437948  6.2E-07  4.9E-06  5.2E-05
etot    3  N  N  2  U      -1.66241421479 -1.6E-07  0.0E+00  0.0E+00
 
  Computing the dispersion energy correction and its gradients...
  
  
 Energy components, in hartrees:
   (A)  Nuclear repulsion............       1.07078276713
   (E)  Total one-electron terms.....      -3.72152293839
   (I)  Total two-electron terms.....       0.98832595647
   (L)  Electronic energy............      -2.73319698192  (E+I)
   (N0) D3 correction................      -0.00020989789
   (N)  Total energy.................      -1.66262411268  (A+L+N0)
   (O)  Gas phase energy.............      -1.66262411268
  
                                 Total             Coulomb       Exchange+Corr.
 Total two-electron terms       0.98832595647       1.99211427311      -1.00378831664
   Hamiltonian  1........       0.82245473510       1.24527002212      -0.42281528701
   Hamiltonian  2........       0.52587213240       0.74684425099      -0.22097211859
  
 SCFE: SCF energy: UDFT(pbe-d3)        -1.66262411268 hartrees   iterations:   3
  
 
 Alpha HOMO energy:    -0.27294
 Alpha LUMO energy:     0.08239
 
  Alpha Orbital energies (hartrees)/symmetry label: 
    -0.37659 Ap         -0.27294 Ap          0.08239 Ap          0.54023 Ap     
     0.70340 Ap          1.00458 Ap          1.61060 App         1.61060 Ap     
     1.87164 App         1.87164 Ap          1.88852 Ap          2.29179 Ap     
 
 
 Beta HOMO energy:    -0.37533
 Beta LUMO energy:     0.02836
 
  Beta Orbital energies (hartrees)/symmetry label: 
    -0.37533 Ap          0.02836 Ap          0.12371 Ap          0.55974 Ap     
     0.97962 Ap          1.15059 Ap          1.61114 App         1.61114 Ap     
     2.28909 Ap          2.35368 App         2.35368 Ap     
 
  
  
    Unrestricted Spin Properties ...
    Sz*(Sz+1)      0.750
    <S**2> ...     0.750
  
  
  end of program scf
   
 Time(scf)  user:        2.4  user+sys:        2.4  wallclock:        2.9
  
  start of program der1a
  
  end of program der1a
   
 Time(der1a)  user:        0.2  user+sys:        0.2  wallclock:        0.3
  
  start of program rwr
  
  end of program rwr
   
 Time(rwr)  user:        0.2  user+sys:        0.2  wallclock:        0.3
  
  start of program der1b
  
   
  forces (hartrees/bohr) : total     
   
 atom  label           x              y              z
 ---- --------   -------------  -------------  -------------
    1 H1          4.539035E-06  -1.114041E-03   0.000000E+00
    2 H2         -4.260922E-06   1.147631E-03   0.000000E+00
    3 H3          2.067687E-06  -1.058958E-04   0.000000E+00
 -------------   -------------  -------------  -------------
     total        2.345800E-06  -7.230535E-05   0.000000E+00
   
  end of program der1b
   
 Time(der1b)  user:        0.2  user+sys:        0.2  wallclock:        0.4
  
  start of program geopt
  
 ----------------------------------------------------------------------------
  Geometry optimization step   4
  Total energy:        -1.66262411268 hartrees
 ----------------------------------------------------------------------------
  detected            2  molecular fragments
  detected            2  molecular fragments
  
  
  Level shifts adjusted to satisfy step-size constraints
   Step size:    0.0436644
   Cos(theta):   0.0999652
   Final level shift:  -8.5151527E-04
  
  energy change:          -3.3766E-06 *  (  5.0000E-05 )
  gradient maximum:        1.0899E-03 .  (  4.5000E-04 )
  gradient rms:            5.4651E-04 .  (  3.0000E-04 )
  displacement maximum:    4.3649E-02 .  (  1.8000E-03 )
  displacement rms:        2.1832E-02 .  (  1.2000E-03 )
  
  predicted energy change:  -3.1972E-06
  step size:     0.04366
  trust radius:  0.30000
  
  molecular structure not yet converged...
  
  center of mass moved by:
     x:    -6.5087E-08     y:     8.2269E-10     z:     0.0000E+00
  
  new geometry: 
                                   angstroms
  atom               x                 y                 z
  H1           -0.0230252241      1.3594490116      0.0000000000 
  H2           -0.0158590957      0.6076579943      0.0000000000 
  H3            0.0388843198     -1.9671070058      0.0000000000 
   
  Warning: atom           3  is not bonded to any other atoms
  nuclear repulsion energy.......             1.068383823 hartrees
  -------------------------------------------------
 /  end of geometry optimization iteration   4   /
 -------------------------------------------------
   
  end of program geopt
   
 Time(geopt)  user:        0.2  user+sys:        0.2  wallclock:        0.3
  
  start of program onee
  
  smallest eigenvalue of S:    9.106E-02
  number of canonical orbitals.....           15
  end of program onee
   
 Time(onee)  user:        0.2  user+sys:        0.2  wallclock:        0.3
  
  start of program probe
  
  end of program probe
   
 Time(probe)  user:        0.2  user+sys:        0.2  wallclock:        0.3
  
  start of program grid
  
   grid     grid set  grid #  grid sym
  ------    --------  ------  --------
  coarse        0        0        1
  medium        2        1        2
  fine          0        0        1
  ultrafine     4        2        2
  charge        0        0        1
  gradient      4        2        2
  density       0        0        1
  DFT-fine    -11        3        2
  DFT-med.    -10        4        2
  DFT-grad    -12        5        2
  DFT-der2     -8        6        2
  DFT-cphf     -9        7        2
  LMP2-enrg     4        2        2
  LMP2-grad     2        1        2
  DFT-cphf2   -15        8        2
  PBF-dens      0        0        1
  plotting      0        0        1
  Rel-grad    -17        0        1
  
  number of gridpoints: 
     atom        H1       H2       H3    total
  grid # 1       65       64       82      211
  grid # 2      257      244      315      816
  grid # 3     2430     2430     2430     7290
  grid # 4      756      756      756     2268
  grid # 5     3001     3001     3001     9003
  grid # 6     7413     7413     7413    22239
  grid # 7      464      464      464     1392
  grid # 8      245      245      245      735
   
  end of program grid
   
 Time(grid)  user:        0.2  user+sys:        0.2  wallclock:        0.4
  
  start of program rwr
  
  end of program rwr
   
 Time(rwr)  user:        0.2  user+sys:        0.2  wallclock:        0.3
  
  start of program scf
  
 Energy computed with NOPS off.
 Convergence Criterion:
    Energy (econv):       1.00E-05
    RMS density (dconv):  5.00E-06
  
       i  u  d  i  g                   
       t  p  i  c  r                                 RMS    maximum
       e  d  i  u  i                       energy  density   DIIS  
       r  t  s  t  d       total energy    change  change    error 
  
etot    1  N  N  2  U      -1.66242001097           5.6E-05  3.6E-04
etot    2  Y  Y  6  M      -1.66242007886  6.8E-08  5.7E-06  4.9E-05
etot    3  N  Y  2  U      -1.66242046413  3.9E-07  1.8E-06  1.4E-05
etot    4  N  N  2  U      -1.66242046509  9.6E-10  0.0E+00  0.0E+00
 
  Computing the dispersion energy correction and its gradients...
  
  
 Energy components, in hartrees:
   (A)  Nuclear repulsion............       1.06838382301
   (E)  Total one-electron terms.....      -3.71645598765
   (I)  Total two-electron terms.....       0.98565169955
   (L)  Electronic energy............      -2.73080428810  (E+I)
   (N0) D3 correction................      -0.00020715282
   (N)  Total energy.................      -1.66262761791  (A+L+N0)
   (O)  Gas phase energy.............      -1.66262761791
  
                                 Total             Coulomb       Exchange+Corr.
 Total two-electron terms       0.98565169955       1.98958963106      -1.00393793151
   Hamiltonian  1........       0.82042776275       1.24325670692      -0.42282894418
   Hamiltonian  2........       0.52528321092       0.74633292414      -0.22104971322
  
 SCFE: SCF energy: UDFT(pbe-d3)        -1.66262761791 hartrees   iterations:   4
  
 
 Alpha HOMO energy:    -0.27295
 Alpha LUMO energy:     0.08224
 
  Alpha Orbital energies (hartrees)/symmetry label: 
    -0.37663 Ap         -0.27295 Ap          0.08224 Ap          0.53991 Ap     
     0.70211 Ap          1.00499 Ap          1.61051 App         1.61051 Ap     
     1.87170 App         1.87170 Ap          1.88718 Ap          2.29284 Ap     
 
 
 Beta HOMO energy:    -0.37545
 Beta LUMO energy:     0.03142
 
  Beta Orbital energies (hartrees)/symmetry label: 
    -0.37545 Ap          0.03142 Ap          0.12485 Ap          0.55922 Ap     
     0.97988 Ap          1.15716 Ap          1.61101 App         1.61101 Ap     
     2.29054 Ap          2.36202 App         2.36202 Ap     
 
  
  
    Unrestricted Spin Properties ...
    Sz*(Sz+1)      0.750
    <S**2> ...     0.750
  
  
  end of program scf
   
 Time(scf)  user:        2.4  user+sys:        2.4  wallclock:        2.9
  
  start of program der1a
  
  end of program der1a
   
 Time(der1a)  user:        0.2  user+sys:        0.2  wallclock:        0.3
  
  start of program rwr
  
  end of program rwr
   
 Time(rwr)  user:        0.2  user+sys:        0.2  wallclock:        0.3
  
  start of program der1b
  
   
  forces (hartrees/bohr) : total     
   
 atom  label           x              y              z
 ---- --------   -------------  -------------  -------------
    1 H1          1.685682E-06  -7.493811E-04   0.000000E+00
    2 H2         -1.089879E-06   7.639821E-04   0.000000E+00
    3 H3          1.227493E-06  -7.021973E-05   0.000000E+00
 -------------   -------------  -------------  -------------
     total        1.823296E-06  -5.561871E-05   0.000000E+00
   
  end of program der1b
   
 Time(der1b)  user:        0.2  user+sys:        0.2  wallclock:        0.3
  
  start of program geopt
  
 ----------------------------------------------------------------------------
  Geometry optimization step   5
  Total energy:        -1.66262761791 hartrees
 ----------------------------------------------------------------------------
  detected            2  molecular fragments
  detected            2  molecular fragments
  
  
  Level shifts adjusted to satisfy step-size constraints
   Step size:    0.0713149
   Cos(theta):   0.0999998
   Final level shift:  -5.0892448E-05
  
  energy change:          -3.5052E-06 *  (  5.0000E-05 )
  gradient maximum:        7.3081E-04 .  (  4.5000E-04 )
  gradient rms:            3.6634E-04 .  (  3.0000E-04 )
  displacement maximum:    7.1282E-02 .  (  1.8000E-03 )
  displacement rms:        3.5657E-02 .  (  1.2000E-03 )
  
  predicted energy change:  -2.7420E-06
  step size:     0.07131
  trust radius:  0.30000
  
  molecular structure not yet converged...
  
  center of mass moved by:
     x:    -1.0469E-07     y:     1.3417E-09     z:     0.0000E+00
  
  new geometry: 
                                   angstroms
  atom               x                 y                 z
  H1           -0.0233866624      1.3712771783      0.0000000000 
  H2           -0.0159519962      0.6206026359      0.0000000000 
  H3            0.0393386586     -1.9918798142      0.0000000000 
   
  Warning: atom           3  is not bonded to any other atoms
  nuclear repulsion energy.......             1.064730933 hartrees
  -------------------------------------------------
 /  end of geometry optimization iteration   5   /
 -------------------------------------------------
   
  end of program geopt
   
 Time(geopt)  user:        0.2  user+sys:        0.2  wallclock:        0.4
  
  start of program onee
  
  smallest eigenvalue of S:    9.148E-02
  number of canonical orbitals.....           15
  end of program onee
   
 Time(onee)  user:        0.2  user+sys:        0.2  wallclock:        0.4
  
  start of program probe
  
  end of program probe
   
 Time(probe)  user:        0.2  user+sys:        0.2  wallclock:        0.3
  
  start of program grid
  
   grid     grid set  grid #  grid sym
  ------    --------  ------  --------
  coarse        0        0        1
  medium        2        1        2
  fine          0        0        1
  ultrafine     4        2        2
  charge        0        0        1
  gradient      4        2        2
  density       0        0        1
  DFT-fine    -11        3        2
  DFT-med.    -10        4        2
  DFT-grad    -12        5        2
  DFT-der2     -8        6        2
  DFT-cphf     -9        7        2
  LMP2-enrg     4        2        2
  LMP2-grad     2        1        2
  DFT-cphf2   -15        8        2
  PBF-dens      0        0        1
  plotting      0        0        1
  Rel-grad    -17        0        1
  
  number of gridpoints: 
     atom        H1       H2       H3    total
  grid # 1       65       64       82      211
  grid # 2      257      244      315      816
  grid # 3     2430     2430     2430     7290
  grid # 4      756      756      756     2268
  grid # 5     3001     3001     3001     9003
  grid # 6     7413     7413     7413    22239
  grid # 7      464      464      464     1392
  grid # 8      245      245      245      735
   
  end of program grid
   
 Time(grid)  user:        0.2  user+sys:        0.2  wallclock:        0.4
  
  start of program rwr
  
  end of program rwr
   
 Time(rwr)  user:        0.2  user+sys:        0.2  wallclock:        0.4
  
  start of program scf
  
 Energy computed with NOPS off.
 Convergence Criterion:
    Energy (econv):       1.00E-05
    RMS density (dconv):  5.00E-06
  
       i  u  d  i  g                   
       t  p  i  c  r                                 RMS    maximum
       e  d  i  u  i                       energy  density   DIIS  
       r  t  s  t  d       total energy    change  change    error 
  
etot    1  N  N  2  U      -1.66242671176           8.8E-05  5.7E-04
etot    2  Y  Y  6  M      -1.66242709797  3.9E-07  8.9E-06  9.0E-05
etot    3  N  Y  2  U      -1.66242785480  7.6E-07  2.3E-06  2.2E-05
etot    4  N  N  2  U      -1.66242785687  2.1E-09  0.0E+00  0.0E+00
 
  Computing the dispersion energy correction and its gradients...
  
  
 Energy components, in hartrees:
   (A)  Nuclear repulsion............       1.06473093322
   (E)  Total one-electron terms.....      -3.70861168913
   (I)  Total two-electron terms.....       0.98145289905
   (L)  Electronic energy............      -2.72715879009  (E+I)
   (N0) D3 correction................      -0.00020218723
   (N)  Total energy.................      -1.66263004410  (A+L+N0)
   (O)  Gas phase energy.............      -1.66263004410
  
                                 Total             Coulomb       Exchange+Corr.
 Total two-electron terms       0.98145289905       1.98569899802      -1.00424609897
   Hamiltonian  1........       0.81723951045       1.24011650650      -0.42287699604
   Hamiltonian  2........       0.52439012154       0.74558249152      -0.22119236998
  
 SCFE: SCF energy: UDFT(pbe-d3)        -1.66263004410 hartrees   iterations:   4
  
 
 Alpha HOMO energy:    -0.27293
 Alpha LUMO energy:     0.08206
 
  Alpha Orbital energies (hartrees)/symmetry label: 
    -0.37673 Ap         -0.27293 Ap          0.08206 Ap          0.53941 Ap     
     0.70001 Ap          1.00568 Ap          1.61035 App         1.61035 Ap     
     1.87181 App         1.87181 Ap          1.88522 Ap          2.29486 Ap     
 
 
 Beta HOMO energy:    -0.37568
 Beta LUMO energy:     0.03627
 
  Beta Orbital energies (hartrees)/symmetry label: 
    -0.37568 Ap          0.03627 Ap          0.12703 Ap          0.55835 Ap     
     0.98051 Ap          1.16810 Ap          1.61080 App         1.61080 Ap     
     2.29310 Ap          2.37601 App         2.37601 Ap     
 
  
  
    Unrestricted Spin Properties ...
    Sz*(Sz+1)      0.750
    <S**2> ...     0.750
  
  
  end of program scf
   
 Time(scf)  user:        2.4  user+sys:        2.4  wallclock:        2.9
  
  start of program der1a
  
  end of program der1a
   
 Time(der1a)  user:        0.2  user+sys:        0.2  wallclock:        0.4
  
  start of program rwr
  
  end of program rwr
   
 Time(rwr)  user:        0.2  user+sys:        0.2  wallclock:        0.3
  
  start of program der1b
  
   
  forces (hartrees/bohr) : total     
   
 atom  label           x              y              z
 ---- --------   -------------  -------------  -------------
    1 H1         -4.495216E-06  -3.713998E-05   0.000000E+00
    2 H2          5.367897E-06   3.182683E-05   0.000000E+00
    3 H3         -1.389366E-07  -1.303744E-05   0.000000E+00
 -------------   -------------  -------------  -------------
     total        7.337442E-07  -1.835060E-05   0.000000E+00
   
  end of program der1b
   
 Time(der1b)  user:        0.2  user+sys:        0.2  wallclock:        0.3
  
  start of program geopt
  
 ----------------------------------------------------------------------------
  Geometry optimization step   6
  Total energy:        -1.66263004410 hartrees
 ----------------------------------------------------------------------------
  detected            2  molecular fragments
  detected            2  molecular fragments
  
  energy change:          -2.4262E-06 #  (  5.0000E-05 )
  gradient maximum:        3.0971E-05 #  (  4.5000E-04 )
  gradient rms:            1.6187E-05 #  (  3.0000E-04 )
  displacement maximum:    1.0141E-02 .  (  1.8000E-03 )
  displacement rms:        5.0711E-03 .  (  1.2000E-03 )
  
  predicted energy change:  -3.7731E-08
  step size:     0.01014
  trust radius:  0.30000
  
  ********************************************************
  **           Geometry optimization complete           **
  ********************************************************
  
  Checking the geometry optimization convergence pattern ...
  
  best                    worst
  ==0=====1=====2=====3=====4==
    ^                          
  
  Convergence category 0: monotonic convergence.
  
  center of mass moved by:
     x:     0.0000E+00     y:     0.0000E+00     z:     0.0000E+00
  
  final geometry: 
                                   angstroms
  atom               x                 y                 z
  H1           -0.0233866624      1.3712771783      0.0000000000 
  H2           -0.0159519962      0.6206026359      0.0000000000 
  H3            0.0393386586     -1.9918798142      0.0000000000 
   
  Warning: atom           3  is not bonded to any other atoms
  bond lengths (angstroms):
 H1      -H2      :   0.750711
  
  bond angles:
  principal moments of inertia:
        amu*angstrom^2:                 0.00003                 6.28425                 6.28428
                g*cm^2:          4.36249872E-45          1.04352404E-39          1.04352840E-39
   
  rotational constants:
               cm^(-1):        infinite      2.68252069      2.68250947
                   GHz:        infinite     80.41994705     80.41961086
   
  Warning: atom           3  is not bonded to any other atoms
  nuclear repulsion energy.......             1.064730933 hartrees
  -------------------------------------------------
 /  end of geometry optimization iteration   6   /
 -------------------------------------------------
   
  end of program geopt
   
 Time(geopt)  user:        2.3  user+sys:        2.3  wallclock:        2.7
  
  start of program cutabab2
  
  end of program cutabab2
   
 Time(cutabab2)  user:        0.2  user+sys:        0.2  wallclock:        0.3
  
  start of program der2a
  
  end of program der2a
   
 Time(der2a)  user:        0.2  user+sys:        0.2  wallclock:        0.2
  
  start of program grid
  
  
   Turning symmetry off because some of the
   following programs cannot use it.
   grid     grid set  grid #  grid sym
  ------    --------  ------  --------
  coarse        0        0        1
  medium        2        1        2
  fine          0        0        1
  ultrafine     4        2        2
  charge        0        0        1
  gradient      4        2        2
  density       0        0        1
  DFT-fine    -11        3        2
  DFT-med.    -10        4        2
  DFT-grad    -12        5        2
  DFT-der2     -8        6        2
  DFT-cphf     -9        7        2
  LMP2-enrg     4        2        2
  LMP2-grad     2        1        2
  DFT-cphf2   -15        8        2
  PBF-dens      0        0        1
  plotting      0        0        1
  Rel-grad    -17        0        1
  
  number of gridpoints: 
     atom        H1       H2       H3    total
  grid # 1      108      107      137      352
  grid # 2      435      416      533     1384
  grid # 3     4304     4304     4304    12912
  grid # 4     1192     1192     1192     3576
  grid # 5     5226     5226     5226    15678
  grid # 6    13718    13718    13718    41154
  grid # 7      744      744      744     2232
  grid # 8      382      382      382     1146
   
  end of program grid
   
 Time(grid)  user:        0.2  user+sys:        0.2  wallclock:        0.4
  
  start of program der2b
  
  end of program der2b
   
 Time(der2b)  user:        0.3  user+sys:        0.3  wallclock:        0.4
  
  start of program der2nda
  
  Computing the dispersion energy correction, gradient, hessian...
 
  end of program der2nda
   
 Time(der2nda)  user:        0.3  user+sys:        0.3  wallclock:        0.3
  
  start of program der2ndb
  
  end of program der2ndb
   
 Time(der2ndb)  user:        0.4  user+sys:        0.4  wallclock:        0.5
  
  start of program rwr
  
  end of program rwr
   
 Time(rwr)  user:        0.2  user+sys:        0.2  wallclock:        0.3
  
  start of program cphfa
  
       1  vectors produced in CPHF
  
     v    i  j  k  i  g
     e    t  c  c  c  r
     c    e  o  o  u  i
     t    r  r  r  t  d       RMS  
  
     1    1  0  0  6  M     2.0E-02
     1    2  0  0  6  M     7.5E-04
     1    3  0  0  6  M     6.0E-04
     1    4  0  0  6  M     1.4E-04
     1    5  0  0  6  M     2.8E-05
  
  
  Atomic Polar Tensors (au): Total
  =========================
  
  APT for atom H1      
  --------------------------------------
        0.0001       0.0004      -0.0000
        0.0002      -0.0138       0.0000
       -0.0000      -0.0000       0.0001
  --------------------------------------
  
  APT for atom H2      
  --------------------------------------
       -0.0050      -0.0009      -0.0000
       -0.0006       0.0266       0.0000
       -0.0000       0.0000      -0.0050
  --------------------------------------
  
  APT for atom H3      
  --------------------------------------
        0.0049       0.0005      -0.0000
        0.0004      -0.0130      -0.0000
        0.0000      -0.0000       0.0049
  --------------------------------------
  
  end of program cphfa
   
 Time(cphfa)  user:        0.4  user+sys:        0.4  wallclock:        0.4
  
  start of program freq
  
   
  Number of frequencies:   4
  harmonic frequencies in cm**-1, reduced masses in amu,
  force constants in mDyne/A, and
  normal modes in cartesian coordinates:           4
  IR intensities in km/mol
  
  vibration #            1         2         3         4
                 --------- --------- --------- ---------
  frequencies       145.36    152.06    152.11   4352.43
  symmetries       Ap       App      Ap       Ap      
  intensities         0.25      0.02      0.02      0.79
  reduc. mass         0.50      0.50      0.50      0.50
  force const         0.01      0.01      0.01      5.62
    H1       X    -0.03100   0.00117  -0.60105  -0.00698
    H1       Y    -0.40534  -0.00004   0.02122   0.70474
    H1       Z    -0.00000  -0.60181  -0.00117   0.00000
    H2       X     0.05823  -0.00150   0.77250   0.00696
    H2       Y    -0.40589  -0.00007   0.03490  -0.70390
    H2       Z     0.00000   0.77470   0.00151  -0.00000
    H3       X    -0.02723   0.00033  -0.17146   0.00002
    H3       Y     0.81123   0.00011  -0.05611  -0.00083
    H3       Z    -0.00000  -0.17289  -0.00034   0.00000
  
  Number of imaginary frequencies:   0
   
  Writing vibrational animation data to init.vib
  Writing IR vibrational spectrum data to init_vib.spm
  rotational symmetry number:  1

  rotational temperatures (K):      3.859545      3.859528
   
  The Quasi-Harmonic approximation will be applied to compute
  vibrational constributions to thermodynamic properties.
  Frequencies will be adjusted to a minimum value of  100.00 cm^-1.

  vibrational temperatures:
       mode:      1        2        3        4
  temp. (K):   209.15   218.79   218.85  6262.16
   
   
  Thermodynamic properties calculated assuming an ideal gas

  In the table below, the units for temperature
  are kelvins, the units for U, H, and G are
  kcal/mol and the units for Cv and S are cal/(mol K)

  The zero point energy (ZPE):      6.865 kcal/mol
  is not included in U, H, or G in the table below
  
 
  =============================================================================
  Thermodynamic properties for P = 1.00E+00 atm, calculated at   1 temperatures


  T =   298.15 K, P = 1.00E+00 atm
   
                  U         Cv          S          H          G        ln(Q)
              =========  =========  =========  =========  =========  =========
  trans.          0.889      2.981     29.289      1.481     -7.251   12.23873
  rot.            0.592      1.987     10.626      0.592     -2.576    4.34705
  vib.            1.212      5.708      8.024      1.212     -1.181    1.99283
  elec.           0.000      0.000      1.377      0.000     -0.411    0.69315
  ----------------------------------------------------------------------------
  total           2.693     10.676     49.316      3.285    -11.418   19.27176
   
   Total internal energy, Utot(SCFE + ZPE + U):      -1.647399 hartrees
   Total enthalpy, Htot (Utot + nRT), with n=1:      -1.646455 hartrees
    Total Gibbs free energy, Gtot (Htot - T*S):      -1.669886 hartrees
   
  end of program freq
   
 Time(freq)  user:        2.3  user+sys:        2.3  wallclock:        2.7

 Total cpu seconds     user:       7.581   user+sys:       7.581
  
 Total elapsed time:    62 seconds

Job init completed on hpc-80-33.cm.cluster at Wed Apr 19 17:43:13 2023
