Job h2_scan started on hpc-21-14.cm.cluster at Thu Apr 20 10:23:51 2023
jobid: hpc-21-14-0-64417519

  +--------------------------------------------------------------------+
  |  Jaguar version 11.7, release 121                                  |
  |                                                                    |
  |  Copyright Schrodinger, Inc.                                       |
  |  All Rights Reserved.                                              |
  |                                                                    |
  |  The following have contributed to Jaguar (listed alphabetically): |
  |  Mike Beachy, Art Bochevarov, Dale Braden, Yixiang Cao,            |
  |  Alan Chien, Chris Cortis, Rich Friesner, Bill Goddard,            |
  |  Hod Greeley, Tom Hughes, Leif Jacobson, Jean-Marc Langlois,       |
  |  Daniel Levine, Daniel Mainz, Rob Murphy, Dean Philipp,            |
  |  Tom Pollard, Murco Ringnalda, Mark Watson, Haoyu Yu.              |
  |                                                                    |
  |  Use of this program should be acknowledged in publications as:    |
  |                                                                    |
  |  Jaguar, version 11.7, Schrodinger, Inc., New York, NY, 2022.      |
  |                                                                    |
  |  A. D. Bochevarov, E. Harder, T. F. Hughes, J. R. Greenwood,       |
  |  D. A. Braden, D. M. Philipp, D. Rinaldo, M. D. Halls,             |
  |  J. Zhang, R. A. Friesner, "Jaguar: A High-Performance Quantum     |
  |  Chemistry Software Program with Strengths in Life and Materials   |
  |  Sciences", Int. J. Quantum Chem., 2013, 113(18), 2110-2142.       |
  +--------------------------------------------------------------------+
  
  start of program pre
  
  Job name: h2_scan
  Executables used: /central/groups/wag/programs/Schrodinger_2022_3/jaguar-v11.7/bin/Linux-x86_64
  Temporary files : /central/scratch/musgrave/pkozlows/h2_scan
  Maestro file (input):  h2_scan.mae
  Maestro file (output): h2_scan.01.mae
  
 Contents of input file: &gen section only
 ----------------Contents start----------------
&gen
basis=6-31G**
igeopt=1
multip=2
dftname=PBE-D3
&
 -----------------Contents end-----------------
 
  basis set:               6-31g**                         
  net molecular charge:    0
  multiplicity:            2
  
  number of basis functions....           15

 --------------------------------------
   Number of active coords =   0
 --------------------------------------
 --------------------------------------

  
 Input geometry:
                                   angstroms
  atom               x                 y                 z
  H1            0.0022809873      0.1584811912      0.0000000000 
  H2            0.0097156535     -0.5921933512      0.0000000000 
  H3            0.0393386586     -1.9918798142      0.0000000000 
   
  principal moments of inertia:
        amu*angstrom^2:                 0.00002                 2.40162                 2.40164
                g*cm^2:          3.27671222E-45          3.98799158E-40          3.98802434E-40
   
  rotational constants:
               cm^(-1):        infinite      7.01925962      7.01920195
                   GHz:        infinite    210.43210963    210.43038064
   
  Z-matrix: (angstroms and degrees) 
 H1            0.0022809873             0.1584811912            0.0000000000
 H2            0.0097156535            -0.5921933512            0.0000000000
 H3            0.0393386586            -1.9918798142            0.0000000000
  
  Z-variables: (angstroms and degrees) 
  r = 1.4#
  
  Geometry scan coordinates: (angstroms and degrees) 
  r = 1.4 to 0.8 in  13  
  
  Warning: atom           3  is not bonded to any other atoms
  Molecular weight:       3.02 amu
   
  Stoichiometry: H3
  Molecule is linear 
  Molecular Point Group: Cs      
	Molecule translated to center of mass 
	Molecule reoriented along symmetry axes
  Point Group used: Cs
  
  detected            2  molecular fragments

 --------------------------------------
   Number of active coords =   0
 --------------------------------------
 --------------------------------------

 
Number of optimization coordinates:     4
Number of independent coordinates:      3
Number of non-redundant coordinates:    4
Number of frozen coordinates:           1
Number of harmonic constraints:         0
 
Number of geometric degrees of freedom:     3
Maximum geometric degrees of freedom:       2
 " " " " " excluding dummy atoms:           2
 
  
 Symmetrized geometry:
                                   angstroms
  atom               x                 y                 z
  H1           -0.0148307792      0.9670118493      0.0000000000 
  H2           -0.0073961130      0.2163373069      0.0000000000 
  H3            0.0222268922     -1.1833491561      0.0000000000 
   
  Z-matrix: (angstroms and degrees) 
 H1            -0.0148307792             0.9670118493            0.0000000000
 H2            -0.0073961130             0.2163373069            0.0000000000
 H3             0.0222268922            -1.1833491561            0.0000000000
  
  Z-variables: (angstroms and degrees) 
  r = 1.4#
  
  Warning: atom           3  is not bonded to any other atoms
  nuclear repulsion energy.......             1.328935862 hartrees
 
 Non-default options chosen:
   SCF calculation type: UDFT(pbe-d3)                
   UDFT=PBE(X+LC)+PW91 (PBE-D3)
   Geometry will be optimized in redundant internal coordinates
      user-selected coordinates frozen
   Scaling standard convergence criteria by a factor of   1.00
  
 Temporary integer options set:
     73=  1
  
  end of program pre
   
 Time(pre)  user:        4.3  user+sys:        4.3  wallclock:        8.7
  
  start of program onee
  
  smallest eigenvalue of S:    5.292E-02
  number of canonical orbitals.....           15
  end of program onee
   
 Time(onee)  user:        0.3  user+sys:        0.3  wallclock:        0.9
  
  start of program hfig
  
  initial wavefunction generated automatically from atomic wavefunctions
  
  -------------------
  Alpha orbital space
  -------------------
 
  Irreducible     Total no   No of occupied orbitals 
  representation  orbitals   Shell_1  Shell_2    ...
  Ap                12          2
  App                3          0
  ------------------------
  Orbital occupation/shell    1.000
 
  ------------------
  Beta orbital space
  ------------------
 
  Irreducible     Total no   No of occupied orbitals 
  representation  orbitals   Shell_1  Shell_2    ...
  Ap                12          1
  App                3          0
  ------------------------
  Orbital occupation/shell    1.000
 
  
  
    Unrestricted Spin Properties ...
    Sz*(Sz+1) ..............     0.750
    <S**2> of initial guess      0.750
  
  
  end of program hfig
   
 Time(hfig)  user:        0.2  user+sys:        0.2  wallclock:        0.8
  
  start of program probe
  
  end of program probe
   
 Time(probe)  user:        0.2  user+sys:        0.2  wallclock:        0.5
  
  start of program grid
  
   grid     grid set  grid #  grid sym
  ------    --------  ------  --------
  coarse        0        0        1
  medium        2        1        2
  fine          0        0        1
  ultrafine     4        2        2
  charge        0        0        1
  gradient      4        2        2
  density       0        0        1
  DFT-fine    -11        3        2
  DFT-med.    -10        4        2
  DFT-grad    -12        5        2
  DFT-der2      0        0        1
  DFT-cphf      0        0        1
  LMP2-enrg     4        2        2
  LMP2-grad     2        1        2
  DFT-cphf2     0        0        1
  PBF-dens      0        0        1
  plotting      0        0        1
  Rel-grad    -17        0        1
  
  number of gridpoints: 
     atom        H1       H2       H3    total
  grid # 1       65       56       74      195
  grid # 2      257      216      288      761
  grid # 3     2430     2430     2430     7290
  grid # 4      756      756      756     2268
  grid # 5     3001     3001     3001     9003
   
  end of program grid
   
 Time(grid)  user:        0.2  user+sys:        0.2  wallclock:        0.6
  
  start of program rwr
  
  end of program rwr
   
 Time(rwr)  user:        0.2  user+sys:        0.2  wallclock:        0.5
  
  start of program scf
  
 number of electrons..........          3
 number of alpha electrons....          2
 number of beta electrons.....          1
 number of alpha orbitals.....         15
 number of beta orbitals......         15
 number of alpha occupied orb..         2
 number of alpha virtual orb...        13
 number of beta occupied orb...         1
 number of beta virtual orb....        14
 SCF type: UDFT=PBE(X+LC)+PW91 (PBE-D3)
 Energy computed with NOPS off.
 Convergence Criterion:
    Energy (econv):       1.00E-05
    RMS density (dconv):  5.00E-06
  
       i  u  d  i  g                   
       t  p  i  c  r                                 RMS    maximum
       e  d  i  u  i                       energy  density   DIIS  
       r  t  s  t  d       total energy    change  change    error 
  
etot    1  N  N  5  M      -1.59745329281           1.1E-02  1.2E-01
etot    2  Y  Y  6  M      -1.65497323979  5.8E-02  7.4E-03  2.5E-02
etot    3  N  Y  2  U      -1.65774954896  2.8E-03  1.6E-03  8.1E-03
etot    4  Y  Y  6  M      -1.65799787112  2.5E-04  3.8E-04  2.2E-03
etot    5  Y  Y  6  M      -1.65801792027  2.0E-05  8.0E-05  2.3E-04
etot    6  N  Y  2  U      -1.65802146034  3.5E-06  1.3E-05  1.4E-04
etot    7  N  Y  2  U      -1.65802146649  6.2E-09  5.8E-06  2.2E-05
etot    8  N  Y  2  U      -1.65802146383 -2.7E-09  2.5E-07  3.6E-06
etot    9  N  N  2  U      -1.65802146387  3.8E-11  0.0E+00  0.0E+00
 
  Computing the dispersion energy correction and its gradients...
  
  
 Energy components, in hartrees:
   (A)  Nuclear repulsion............       1.32893586201
   (E)  Total one-electron terms.....      -4.19682927269
   (I)  Total two-electron terms.....       1.20987194681
   (L)  Electronic energy............      -2.98695732587  (E+I)
   (N0) D3 correction................      -0.00007723526
   (N)  Total energy.................      -1.65809869913  (A+L+N0)
   (O)  Gas phase energy.............      -1.65809869913
  
                                 Total             Coulomb       Exchange+Corr.
 Total two-electron terms       1.20987194681       2.22196914630      -1.01209719948
   Hamiltonian  1........       0.98924409639       1.42358664051      -0.43434254412
   Hamiltonian  2........       0.58270178828       0.79838250579      -0.21568071751
  
 SCFE: SCF energy: UDFT(pbe-d3)        -1.65809869913 hartrees   iterations:   9
  
 
 Alpha HOMO energy:    -0.24468
 Alpha LUMO energy:     0.12252
 
  Alpha Orbital energies (hartrees)/symmetry label: 
    -0.41638 Ap         -0.24468 Ap          0.12252 Ap          0.58975 Ap     
     0.69326 Ap          1.01459 Ap          1.58700 Ap          1.58702 App    
     1.83435 Ap          1.87383 App         1.87384 Ap          2.52284 Ap     
 
 
 Beta HOMO energy:    -0.39187
 Beta LUMO energy:    -0.09755
 
  Beta Orbital energies (hartrees)/symmetry label: 
    -0.39187 Ap         -0.09755 Ap          0.15988 Ap          0.60944 Ap     
     0.87886 Ap          1.02658 Ap          1.60113 Ap          1.60114 App    
     1.96478 Ap          2.10349 App         2.10349 Ap     
 
  
  
    Unrestricted Spin Properties ...
    Sz*(Sz+1)      0.750
    <S**2> ...     0.752
  
  
  end of program scf
   
 Time(scf)  user:        4.5  user+sys:        4.5  wallclock:       14.8
  
  start of program der1a
  
  end of program der1a
   
 Time(der1a)  user:        0.3  user+sys:        0.3  wallclock:        0.7
  
  start of program rwr
  
  end of program rwr
   
 Time(rwr)  user:        0.3  user+sys:        0.3  wallclock:        0.5
  
  start of program der1b
  
   
  forces (hartrees/bohr) : total     
   
 atom  label           x              y              z
 ---- --------   -------------  -------------  -------------
    1 H1         -2.390645E-04   1.675446E-02   0.000000E+00
    2 H2          1.582558E-04  -1.112050E-02   0.000000E+00
    3 H3          7.978910E-05  -5.645467E-03   0.000000E+00
 -------------   -------------  -------------  -------------
     total       -1.019566E-06  -1.150480E-05   0.000000E+00
   
  end of program der1b
   
 Time(der1b)  user:        0.3  user+sys:        0.3  wallclock:        0.4
  
  start of program geopt
  
 ----------------------------------------------------------------------------
  Geometry optimization step   1
  Total energy:        -1.65809869913 hartrees
 ----------------------------------------------------------------------------
  detected            2  molecular fragments
  
  gradient maximum:        1.6760E-02 .  (  4.5000E-04 )
  gradient rms:            8.3801E-03 .  (  3.0000E-04 )
  displacement maximum:    4.5402E-02 .  (  1.8000E-03 )
  displacement rms:        2.2703E-02 .  (  1.2000E-03 )
  
  predicted energy change:  -3.8130E-04
  step size:     0.04541
  trust radius:  0.30000
  
  molecular structure not yet converged...
  
  center of mass moved by:
     x:     3.0054E-08     y:     4.5946E-06     z:     0.0000E+00
  
  new geometry: 
                                   angstroms
  atom               x                 y                 z
  H1           -0.0151763227      0.9830271998      0.0000000000 
  H2           -0.0071199241      0.2083318126      0.0000000000 
  H3            0.0222962469     -1.1913590124      0.0000000000 
   
  Z-matrix: (angstroms and degrees) 
 H1            -0.0151763227             0.9830271998            0.0000000000
 H2            -0.0071199241             0.2083318126            0.0000000000
 H3             0.0222962469            -1.1913590124            0.0000000000
  
  Z-variables: (angstroms and degrees) 
  r = 1.4#
  
  Warning: atom           3  is not bonded to any other atoms
  nuclear repulsion energy.......             1.304357017 hartrees
  -------------------------------------------------
 /  end of geometry optimization iteration   1   /
 -------------------------------------------------
   
  end of program geopt
   
 Time(geopt)  user:        0.3  user+sys:        0.3  wallclock:        0.5
  
  start of program onee
  
  smallest eigenvalue of S:    5.561E-02
  number of canonical orbitals.....           15
  end of program onee
   
 Time(onee)  user:        0.3  user+sys:        0.3  wallclock:        0.4
  
  start of program probe
  
  end of program probe
   
 Time(probe)  user:        0.2  user+sys:        0.2  wallclock:        0.3
  
  start of program grid
  
   grid     grid set  grid #  grid sym
  ------    --------  ------  --------
  coarse        0        0        1
  medium        2        1        2
  fine          0        0        1
  ultrafine     4        2        2
  charge        0        0        1
  gradient      4        2        2
  density       0        0        1
  DFT-fine    -11        3        2
  DFT-med.    -10        4        2
  DFT-grad    -12        5        2
  DFT-der2      0        0        1
  DFT-cphf      0        0        1
  LMP2-enrg     4        2        2
  LMP2-grad     2        1        2
  DFT-cphf2     0        0        1
  PBF-dens      0        0        1
  plotting      0        0        1
  Rel-grad    -17        0        1
  
  number of gridpoints: 
     atom        H1       H2       H3    total
  grid # 1       65       56       74      195
  grid # 2      257      216      288      761
  grid # 3     2430     2430     2430     7290
  grid # 4      756      756      756     2268
  grid # 5     3001     3001     3001     9003
   
  end of program grid
   
 Time(grid)  user:        0.2  user+sys:        0.2  wallclock:        0.5
  
  start of program rwr
  
  end of program rwr
   
 Time(rwr)  user:        0.2  user+sys:        0.2  wallclock:        0.4
  
  start of program scf
  
 Energy computed with NOPS off.
 Convergence Criterion:
    Energy (econv):       1.00E-05
    RMS density (dconv):  5.00E-06
  
       i  u  d  i  g                   
       t  p  i  c  r                                 RMS    maximum
       e  d  i  u  i                       energy  density   DIIS  
       r  t  s  t  d       total energy    change  change    error 
  
etot    1  N  N  2  U      -1.65834898029           6.4E-04  4.7E-03
etot    2  Y  Y  6  M      -1.65843762304  8.9E-05  2.3E-04  1.3E-03
etot    3  Y  Y  6  M      -1.65844146430  3.8E-06  4.2E-05  2.2E-04
etot    4  N  Y  2  U      -1.65843205424 -9.4E-06  1.9E-05  8.5E-05
etot    5  N  Y  2  U      -1.65843208849  3.4E-08  5.5E-06  2.4E-05
etot    6  N  Y  2  U      -1.65843209484  6.4E-09  6.2E-07  5.8E-06
etot    7  N  N  2  U      -1.65843209529  4.5E-10  0.0E+00  0.0E+00
 
  Computing the dispersion energy correction and its gradients...
  
  
 Energy components, in hartrees:
   (A)  Nuclear repulsion............       1.30435701665
   (E)  Total one-electron terms.....      -4.16168139097
   (I)  Total two-electron terms.....       1.19889227903
   (L)  Electronic energy............      -2.96278911194  (E+I)
   (N0) D3 correction................      -0.00008359622
   (N)  Total energy.................      -1.65851569151  (A+L+N0)
   (O)  Gas phase energy.............      -1.65851569151
  
                                 Total             Coulomb       Exchange+Corr.
 Total two-electron terms       1.19889227903       2.20321843745      -1.00432615842
   Hamiltonian  1........       0.98146987887       1.41325685775      -0.43178697887
   Hamiltonian  2........       0.57671228355       0.78996157970      -0.21324929616
  
 SCFE: SCF energy: UDFT(pbe-d3)        -1.65851569151 hartrees   iterations:   7
  
 
 Alpha HOMO energy:    -0.24501
 Alpha LUMO energy:     0.11550
 
  Alpha Orbital energies (hartrees)/symmetry label: 
    -0.41272 Ap         -0.24501 Ap          0.11550 Ap          0.59618 Ap     
     0.69371 Ap          0.99889 Ap          1.59036 Ap          1.59038 App    
     1.81853 Ap          1.87375 App         1.87376 Ap          2.48776 Ap     
 
 
 Beta HOMO energy:    -0.38759
 Beta LUMO energy:    -0.10061
 
  Beta Orbital energies (hartrees)/symmetry label: 
    -0.38759 Ap         -0.10061 Ap          0.15352 Ap          0.61654 Ap     
     0.87604 Ap          1.01099 Ap          1.60492 Ap          1.60493 App    
     1.94268 Ap          2.10045 Ap          2.10045 App    
 
  
  
    Unrestricted Spin Properties ...
    Sz*(Sz+1)      0.750
    <S**2> ...     0.752
  
  
  end of program scf
   
 Time(scf)  user:        4.1  user+sys:        4.1  wallclock:        6.7
  
  start of program der1a
  
  end of program der1a
   
 Time(der1a)  user:        0.3  user+sys:        0.3  wallclock:        0.6
  
  start of program rwr
  
  end of program rwr
   
 Time(rwr)  user:        0.3  user+sys:        0.3  wallclock:        0.4
  
  start of program der1b
  
   
  forces (hartrees/bohr) : total     
   
 atom  label           x              y              z
 ---- --------   -------------  -------------  -------------
    1 H1         -8.758591E-05   1.971597E-03   0.000000E+00
    2 H2          3.284678E-05   2.360734E-03   0.000000E+00
    3 H3          5.372553E-05  -4.344455E-03   0.000000E+00
 -------------   -------------  -------------  -------------
     total       -1.013605E-06  -1.212360E-05   0.000000E+00
   
  end of program der1b
   
 Time(der1b)  user:        0.3  user+sys:        0.3  wallclock:        0.5
  
  start of program geopt
  
 ----------------------------------------------------------------------------
  Geometry optimization step   2
  Total energy:        -1.65851569151 hartrees
 ----------------------------------------------------------------------------
  detected            2  molecular fragments
  
  energy change:          -4.1699E-04 .  (  5.0000E-05 )
  gradient maximum:        1.9764E-03 .  (  4.5000E-04 )
  gradient rms:            9.8943E-04 .  (  3.0000E-04 )
  displacement maximum:    6.0735E-03 .  (  1.8000E-03 )
  displacement rms:        3.0564E-03 .  (  1.2000E-03 )
  
  predicted energy change:  -6.0363E-06
  step size:     0.00611
  trust radius:  0.30000
  
  molecular structure not yet converged...
  
  center of mass moved by:
     x:     3.9475E-08     y:     6.1426E-07     z:     0.0000E+00
  
  new geometry: 
                                   angstroms
  atom               x                 y                 z
  H1           -0.0153498286      0.9851691169      0.0000000000 
  H2           -0.0068853247      0.2072639456      0.0000000000 
  H3            0.0222351533     -1.1924330626      0.0000000000 
   
  Z-matrix: (angstroms and degrees) 
 H1            -0.0153498286             0.9851691169            0.0000000000
 H2            -0.0068853247             0.2072639456            0.0000000000
 H3             0.0222351533            -1.1924330626            0.0000000000
  
  Z-variables: (angstroms and degrees) 
  r = 1.4#
  
  Warning: atom           3  is not bonded to any other atoms
  nuclear repulsion energy.......             1.301175702 hartrees
  -------------------------------------------------
 /  end of geometry optimization iteration   2   /
 -------------------------------------------------
   
  end of program geopt
   
 Time(geopt)  user:        0.3  user+sys:        0.3  wallclock:        0.5
  
  start of program onee
  
  smallest eigenvalue of S:    5.597E-02
  number of canonical orbitals.....           15
  end of program onee
   
 Time(onee)  user:        0.3  user+sys:        0.3  wallclock:        0.5
  
  start of program probe
  
  end of program probe
   
 Time(probe)  user:        0.3  user+sys:        0.3  wallclock:        0.3
  
  start of program grid
  
   grid     grid set  grid #  grid sym
  ------    --------  ------  --------
  coarse        0        0        1
  medium        2        1        2
  fine          0        0        1
  ultrafine     4        2        2
  charge        0        0        1
  gradient      4        2        2
  density       0        0        1
  DFT-fine    -11        3        2
  DFT-med.    -10        4        2
  DFT-grad    -12        5        2
  DFT-der2      0        0        1
  DFT-cphf      0        0        1
  LMP2-enrg     4        2        2
  LMP2-grad     2        1        2
  DFT-cphf2     0        0        1
  PBF-dens      0        0        1
  plotting      0        0        1
  Rel-grad    -17        0        1
  
  number of gridpoints: 
     atom        H1       H2       H3    total
  grid # 1       65       56       74      195
  grid # 2      257      216      288      761
  grid # 3     2430     2430     2430     7290
  grid # 4      756      756      756     2268
  grid # 5     3001     3001     3001     9003
   
  end of program grid
   
 Time(grid)  user:        0.3  user+sys:        0.3  wallclock:        0.4
  
  start of program rwr
  
  end of program rwr
   
 Time(rwr)  user:        0.3  user+sys:        0.3  wallclock:        0.4
  
  start of program scf
  
 Energy computed with NOPS off.
 Convergence Criterion:
    Energy (econv):       1.00E-05
    RMS density (dconv):  5.00E-06
  
       i  u  d  i  g                   
       t  p  i  c  r                                 RMS    maximum
       e  d  i  u  i                       energy  density   DIIS  
       r  t  s  t  d       total energy    change  change    error 
  
etot    1  N  N  2  U      -1.65843630405           8.5E-05  6.2E-04
etot    2  Y  Y  6  M      -1.65843942392  3.1E-06  3.1E-05  1.7E-04
etot    3  N  Y  2  U      -1.65843781270 -1.6E-06  5.5E-06  3.2E-05
etot    4  N  Y  2  U      -1.65843781869  6.0E-09  1.5E-06  1.2E-05
etot    5  N  N  2  U      -1.65843781956  8.7E-10  0.0E+00  0.0E+00
 
  Computing the dispersion energy correction and its gradients...
  
  
 Energy components, in hartrees:
   (A)  Nuclear repulsion............       1.30117570213
   (E)  Total one-electron terms.....      -4.15705846827
   (I)  Total two-electron terms.....       1.19744494659
   (L)  Electronic energy............      -2.95961352169  (E+I)
   (N0) D3 correction................      -0.00008453488
   (N)  Total energy.................      -1.65852235443  (A+L+N0)
   (O)  Gas phase energy.............      -1.65852235443
  
                                 Total             Coulomb       Exchange+Corr.
 Total two-electron terms       1.19744494659       2.20075188472      -1.00330693813
   Hamiltonian  1........       0.98044481227       1.41189683687      -0.43145202460
   Hamiltonian  2........       0.57592490651       0.78885504784      -0.21293014133
  
 SCFE: SCF energy: UDFT(pbe-d3)        -1.65852235443 hartrees   iterations:   5
  
 
 Alpha HOMO energy:    -0.24505
 Alpha LUMO energy:     0.11456
 
  Alpha Orbital energies (hartrees)/symmetry label: 
    -0.41224 Ap         -0.24505 Ap          0.11456 Ap          0.59703 Ap     
     0.69378 Ap          0.99687 Ap          1.59089 Ap          1.59090 App    
     1.81634 Ap          1.87375 App         1.87375 Ap          2.48318 Ap     
 
 
 Beta HOMO energy:    -0.38702
 Beta LUMO energy:    -0.10101
 
  Beta Orbital energies (hartrees)/symmetry label: 
    -0.38702 Ap         -0.10101 Ap          0.15267 Ap          0.61749 Ap     
     0.87567 Ap          1.00898 Ap          1.60551 Ap          1.60551 App    
     1.93963 Ap          2.10004 Ap          2.10004 App    
 
  
  
    Unrestricted Spin Properties ...
    Sz*(Sz+1)      0.750
    <S**2> ...     0.752
  
  
  end of program scf
   
 Time(scf)  user:        4.1  user+sys:        4.1  wallclock:        7.1
  
  start of program der1a
  
  end of program der1a
   
 Time(der1a)  user:        0.3  user+sys:        0.3  wallclock:        1.0
  
  start of program rwr
  
  end of program rwr
   
 Time(rwr)  user:        0.3  user+sys:        0.3  wallclock:        0.3
  
  start of program der1b
  
   
  forces (hartrees/bohr) : total     
   
 atom  label           x              y              z
 ---- --------   -------------  -------------  -------------
    1 H1         -6.430754E-05   1.688567E-04   0.000000E+00
    2 H2          1.175642E-05   3.988661E-03   0.000000E+00
    3 H3          5.161091E-05  -4.169705E-03   0.000000E+00
 -------------   -------------  -------------  -------------
     total       -9.402011E-07  -1.218717E-05   0.000000E+00
   
  end of program der1b
   
 Time(der1b)  user:        0.3  user+sys:        0.3  wallclock:        0.4
  
  start of program geopt
  
 ----------------------------------------------------------------------------
  Geometry optimization step   3
  Total energy:        -1.65852235443 hartrees
 ----------------------------------------------------------------------------
  detected            2  molecular fragments
  detected            2  molecular fragments
  
  energy change:          -6.6629E-06 *  (  5.0000E-05 )
  gradient maximum:        1.7360E-04 *  (  4.5000E-04 )
  gradient rms:            9.8119E-05 *  (  3.0000E-04 )
  displacement maximum:    6.1127E-04 *  (  1.8000E-03 )
  displacement rms:        4.4185E-04 *  (  1.2000E-03 )
  
  predicted energy change:  -8.2948E-08
  step size:     0.00088
  trust radius:  0.30000
  
  ********************************************************
  **           Geometry optimization complete           **
  ********************************************************
  
  Checking the geometry optimization convergence pattern ...
  
  best                    worst
  ==0=====1=====2=====3=====4==
    ^                          
  
  Convergence category 0: monotonic convergence.
  
  Number of imaginary frequencies:   0
  
  center of mass moved by:
     x:     0.0000E+00     y:     0.0000E+00     z:     0.0000E+00
  
  final geometry: 
                                   angstroms
  atom               x                 y                 z
  H1           -0.0153498286      0.9851691169      0.0000000000 
  H2           -0.0068853247      0.2072639456      0.0000000000 
  H3            0.0222351533     -1.1924330626      0.0000000000 
   
  Warning: atom           3  is not bonded to any other atoms
  bond lengths (angstroms):
 H1      -H2      :   0.777951
  
  bond angles:
  principal moments of inertia:
        amu*angstrom^2:                 0.00002                 2.45524                 2.45525
                g*cm^2:          2.67345281E-45          4.07701767E-40          4.07704441E-40
   
  rotational constants:
               cm^(-1):        infinite      6.86598649      6.86594147
                   GHz:        infinite    205.83709657    205.83574683
   
  Z-matrix: (angstroms and degrees) 
 H1            -0.0153498286             0.9851691169            0.0000000000
 H2            -0.0068853247             0.2072639456            0.0000000000
 H3             0.0222351533            -1.1924330626            0.0000000000
  
  Z-variables: (angstroms and degrees) 
  r = 1.4#
  
  Warning: atom           3  is not bonded to any other atoms
  nuclear repulsion energy.......             1.301175702 hartrees
  -------------------------------------------------
 /  end of geometry optimization iteration   3   /
 -------------------------------------------------
   
  end of program geopt
   
 Time(geopt)  user:        3.7  user+sys:        3.7  wallclock:        5.8
  
  start of program scanner
  
  
 Geometry scan step   1 : (angstroms and degrees) 
  scan:   r = 1.4   energy =       -1.658522
  ================================================
 //       end of geometry scan step   1         //
 ================================================
   
  Molecule is linear 
  Molecular Point Group: Cs      
	Molecule translated to center of mass 
	Molecule reoriented along symmetry axes
  Point Group used: Cs
  
  Warning: atom           3  is not bonded to any other atoms
  detected            2  molecular fragments

 --------------------------------------
   Number of active coords =   0
 --------------------------------------
 --------------------------------------

 
Number of optimization coordinates:     4
Number of independent coordinates:      3
Number of non-redundant coordinates:    4
Number of frozen coordinates:           1
Number of harmonic constraints:         0
 
Number of geometric degrees of freedom:     3
Maximum geometric degrees of freedom:       2
 " " " " " excluding dummy atoms:           2
 
  
  new geometry:
                                   angstroms
  atom               x                 y                 z
  H1            0.0150031562      0.9685060573      0.0000000000 
  H2            0.0065386523      0.1906008860      0.0000000000 
  H3           -0.0215418086     -1.1591069433      0.0000000000 
   
  Z-matrix: (angstroms and degrees) 
 H1             0.0150031562             0.9685060573            0.0000000000
 H2             0.0065386523             0.1906008860            0.0000000000
 H3            -0.0215418086            -1.1591069433            0.0000000000
  
  Z-variables: (angstroms and degrees) 
  r = 1.35#
  
  nuclear repulsion energy.......             1.320884210 hartrees
  end of program scanner
   
 Time(scanner)  user:        3.9  user+sys:        3.9  wallclock:        6.0
  
  start of program onee
  
  smallest eigenvalue of S:    5.367E-02
  number of canonical orbitals.....           15
  end of program onee
   
 Time(onee)  user:        0.3  user+sys:        0.3  wallclock:        0.5
  
  start of program probe
  
  end of program probe
   
 Time(probe)  user:        0.3  user+sys:        0.3  wallclock:        0.4
  
  start of program grid
  
   grid     grid set  grid #  grid sym
  ------    --------  ------  --------
  coarse        0        0        1
  medium        2        1        2
  fine          0        0        1
  ultrafine     4        2        2
  charge        0        0        1
  gradient      4        2        2
  density       0        0        1
  DFT-fine    -11        3        2
  DFT-med.    -10        4        2
  DFT-grad    -12        5        2
  DFT-der2      0        0        1
  DFT-cphf      0        0        1
  LMP2-enrg     4        2        2
  LMP2-grad     2        1        2
  DFT-cphf2     0        0        1
  PBF-dens      0        0        1
  plotting      0        0        1
  Rel-grad    -17        0        1
  
  number of gridpoints: 
     atom        H1       H2       H3    total
  grid # 1       65       56       74      195
  grid # 2      257      214      285      756
  grid # 3     2430     2430     2430     7290
  grid # 4      756      756      756     2268
  grid # 5     3001     3001     3001     9003
   
  end of program grid
   
 Time(grid)  user:        0.2  user+sys:        0.2  wallclock:        0.4
  
  start of program rwr
  
  end of program rwr
   
 Time(rwr)  user:        0.2  user+sys:        0.2  wallclock:        0.4
  
  start of program scf
  
 number of electrons..........          3
 number of alpha electrons....          2
 number of beta electrons.....          1
 number of alpha orbitals.....         15
 number of beta orbitals......         15
 number of alpha occupied orb..         2
 number of alpha virtual orb...        13
 number of beta occupied orb...         1
 number of beta virtual orb....        14
 SCF type: UDFT=PBE(X+LC)+PW91 (PBE-D3)
 Energy computed with NOPS off.
 Convergence Criterion:
    Energy (econv):       1.00E-05
    RMS density (dconv):  5.00E-06
  
       i  u  d  i  g                   
       t  p  i  c  r                                 RMS    maximum
       e  d  i  u  i                       energy  density   DIIS  
       r  t  s  t  d       total energy    change  change    error 
  
etot    1  N  N  2  U      -1.65790715051           8.6E-04  3.8E-03
etot    2  Y  Y  6  M      -1.65803408902  1.3E-04  3.5E-04  1.2E-03
etot    3  Y  Y  6  M      -1.65803994866  5.9E-06  9.6E-05  5.6E-04
etot    4  Y  Y  6  M      -1.65804162420  1.7E-06  4.9E-05  1.5E-04
etot    5  N  Y  2  U      -1.65804908317  7.5E-06  3.3E-06  3.2E-05
etot    6  N  N  2  U      -1.65804908764  4.5E-09  0.0E+00  0.0E+00
 
  Computing the dispersion energy correction and its gradients...
  
  
 Energy components, in hartrees:
   (A)  Nuclear repulsion............       1.32088421013
   (E)  Total one-electron terms.....      -4.19061979101
   (I)  Total two-electron terms.....       1.21168649324
   (L)  Electronic energy............      -2.97893329777  (E+I)
   (N0) D3 correction................      -0.00007267464
   (N)  Total energy.................      -1.65812176228  (A+L+N0)
   (O)  Gas phase energy.............      -1.65812176228
  
                                 Total             Coulomb       Exchange+Corr.
 Total two-electron terms       1.21168649324       2.21610956581      -1.00442307257
   Hamiltonian  1........       0.99105951833       1.42372455877      -0.43266504044
   Hamiltonian  2........       0.57987898954       0.79238500704      -0.21250601750
  
 SCFE: SCF energy: UDFT(pbe-d3)        -1.65812176228 hartrees   iterations:   6
  
 
 Alpha HOMO energy:    -0.24130
 Alpha LUMO energy:     0.11759
 
  Alpha Orbital energies (hartrees)/symmetry label: 
    -0.41736 Ap         -0.24130 Ap          0.11759 Ap          0.59966 Ap     
     0.69121 Ap          0.99158 Ap          1.58452 Ap          1.58454 App    
     1.79890 Ap          1.87498 App         1.87498 Ap          2.50352 Ap     
 
 
 Beta HOMO energy:    -0.39008
 Beta LUMO energy:    -0.10396
 
  Beta Orbital energies (hartrees)/symmetry label: 
    -0.39008 Ap         -0.10396 Ap          0.15690 Ap          0.62112 Ap     
     0.86458 Ap          1.00455 Ap          1.60184 Ap          1.60185 App    
     1.91651 Ap          2.08859 App         2.08859 Ap     
 
  
  
    Unrestricted Spin Properties ...
    Sz*(Sz+1)      0.750
    <S**2> ...     0.753
  
  
  end of program scf
   
 Time(scf)  user:        4.1  user+sys:        4.1  wallclock:        7.1
  
  start of program der1a
  
  end of program der1a
   
 Time(der1a)  user:        0.3  user+sys:        0.3  wallclock:        0.6
  
  start of program rwr
  
  end of program rwr
   
 Time(rwr)  user:        0.3  user+sys:        0.3  wallclock:        0.4
  
  start of program der1b
  
   
  forces (hartrees/bohr) : total     
   
 atom  label           x              y              z
 ---- --------   -------------  -------------  -------------
    1 H1          1.035322E-04   3.142010E-03   0.000000E+00
    2 H2         -5.051117E-05   1.271942E-03   0.000000E+00
    3 H3         -5.176759E-05  -4.430643E-03   0.000000E+00
 -------------   -------------  -------------  -------------
     total        1.253440E-06  -1.669144E-05   0.000000E+00
   
  end of program der1b
   
 Time(der1b)  user:        0.3  user+sys:        0.3  wallclock:        0.6
  
  start of program geopt
  
 ----------------------------------------------------------------------------
  Geometry optimization step   1
  Total energy:        -1.65812176228 hartrees
 ----------------------------------------------------------------------------
  
  gradient maximum:        3.1485E-03 .  (  4.5000E-04 )
  gradient rms:            1.5751E-03 .  (  3.0000E-04 )
  displacement maximum:    1.0536E-02 .  (  1.8000E-03 )
  displacement rms:        5.2697E-03 .  (  1.2000E-03 )
  
  predicted energy change:  -1.6574E-05
  step size:     0.01054
  trust radius:  0.30000
  
  molecular structure not yet converged...
  
  center of mass moved by:
     x:     1.7671E-08     y:     1.0664E-06     z:     0.0000E+00
  
  new geometry: 
                                   angstroms
  atom               x                 y                 z
  H1            0.0149960695      0.9722227082      0.0000000000 
  H2            0.0066117192      0.1887411105      0.0000000000 
  H3           -0.0216077887     -1.1609638188      0.0000000000 
   
  Z-matrix: (angstroms and degrees) 
 H1             0.0149960695             0.9722227082            0.0000000000
 H2             0.0066117192             0.1887411105            0.0000000000
 H3            -0.0216077887            -1.1609638188            0.0000000000
  
  Z-variables: (angstroms and degrees) 
  r = 1.35#
  
  Warning: atom           3  is not bonded to any other atoms
  nuclear repulsion energy.......             1.315394389 hartrees
  -------------------------------------------------
 /  end of geometry optimization iteration   1   /
 -------------------------------------------------
   
  end of program geopt
   
 Time(geopt)  user:        0.3  user+sys:        0.3  wallclock:        0.5
  
  start of program onee
  
  smallest eigenvalue of S:    5.427E-02
  number of canonical orbitals.....           15
  end of program onee
   
 Time(onee)  user:        0.3  user+sys:        0.3  wallclock:        0.3
  
  start of program probe
  
  end of program probe
   
 Time(probe)  user:        0.2  user+sys:        0.2  wallclock:        0.4
  
  start of program grid
  
   grid     grid set  grid #  grid sym
  ------    --------  ------  --------
  coarse        0        0        1
  medium        2        1        2
  fine          0        0        1
  ultrafine     4        2        2
  charge        0        0        1
  gradient      4        2        2
  density       0        0        1
  DFT-fine    -11        3        2
  DFT-med.    -10        4        2
  DFT-grad    -12        5        2
  DFT-der2      0        0        1
  DFT-cphf      0        0        1
  LMP2-enrg     4        2        2
  LMP2-grad     2        1        2
  DFT-cphf2     0        0        1
  PBF-dens      0        0        1
  plotting      0        0        1
  Rel-grad    -17        0        1
  
  number of gridpoints: 
     atom        H1       H2       H3    total
  grid # 1       65       56       74      195
  grid # 2      257      214      285      756
  grid # 3     2430     2430     2430     7290
  grid # 4      756      756      756     2268
  grid # 5     3001     3001     3001     9003
   
  end of program grid
   
 Time(grid)  user:        0.3  user+sys:        0.3  wallclock:        0.4
  
  start of program rwr
  
  end of program rwr
   
 Time(rwr)  user:        0.2  user+sys:        0.2  wallclock:        0.5
  
  start of program scf
  
 Energy computed with NOPS off.
 Convergence Criterion:
    Energy (econv):       1.00E-05
    RMS density (dconv):  5.00E-06
  
       i  u  d  i  g                   
       t  p  i  c  r                                 RMS    maximum
       e  d  i  u  i                       energy  density   DIIS  
       r  t  s  t  d       total energy    change  change    error 
  
etot    1  N  N  2  U      -1.65806026206           1.5E-04  1.1E-03
etot    2  Y  Y  6  M      -1.65806734223  7.1E-06  5.9E-05  3.0E-04
etot    3  Y  Y  6  M      -1.65806689707 -4.5E-07  1.2E-05  6.1E-05
etot    4  N  Y  2  U      -1.65806486540 -2.0E-06  5.5E-06  2.3E-05
etot    5  N  Y  2  U      -1.65806486902  3.6E-09  5.9E-07  6.1E-06
etot    6  N  N  2  U      -1.65806486949  4.7E-10  0.0E+00  0.0E+00
 
  Computing the dispersion energy correction and its gradients...
  
  
 Energy components, in hartrees:
   (A)  Nuclear repulsion............       1.31539438903
   (E)  Total one-electron terms.....      -4.18263142197
   (I)  Total two-electron terms.....       1.20917216345
   (L)  Electronic energy............      -2.97345925853  (E+I)
   (N0) D3 correction................      -0.00007426603
   (N)  Total energy.................      -1.65813913553  (A+L+N0)
   (O)  Gas phase energy.............      -1.65813913553
  
                                 Total             Coulomb       Exchange+Corr.
 Total two-electron terms       1.20917216345       2.21183470521      -1.00266254176
   Hamiltonian  1........       0.98926835875       1.42135195379      -0.43208359505
   Hamiltonian  2........       0.57852531006       0.79048275142      -0.21195744136
  
 SCFE: SCF energy: UDFT(pbe-d3)        -1.65813913553 hartrees   iterations:   6
  
 
 Alpha HOMO energy:    -0.24140
 Alpha LUMO energy:     0.11599
 
  Alpha Orbital energies (hartrees)/symmetry label: 
    -0.41653 Ap         -0.24140 Ap          0.11599 Ap          0.60109 Ap     
     0.69133 Ap          0.98821 Ap          1.58544 Ap          1.58546 App    
     1.79486 Ap          1.87499 App         1.87499 Ap          2.49750 Ap     
 
 
 Beta HOMO energy:    -0.38911
 Beta LUMO energy:    -0.10468
 
  Beta Orbital energies (hartrees)/symmetry label: 
    -0.38911 Ap         -0.10468 Ap          0.15546 Ap          0.62276 Ap     
     0.86395 Ap          1.00115 Ap          1.60288 Ap          1.60289 App    
     1.91121 Ap          2.08786 App         2.08786 Ap     
 
  
  
    Unrestricted Spin Properties ...
    Sz*(Sz+1)      0.750
    <S**2> ...     0.753
  
  
  end of program scf
   
 Time(scf)  user:        4.3  user+sys:        4.3  wallclock:        8.8
  
  start of program der1a
  
  end of program der1a
   
 Time(der1a)  user:        0.3  user+sys:        0.3  wallclock:        0.8
  
  start of program rwr
  
  end of program rwr
   
 Time(rwr)  user:        0.3  user+sys:        0.3  wallclock:        0.4
  
  start of program der1b
  
   
  forces (hartrees/bohr) : total     
   
 atom  label           x              y              z
 ---- --------   -------------  -------------  -------------
    1 H1          7.224643E-05   1.318800E-04   0.000000E+00
    2 H2         -2.734803E-05   3.924721E-03   0.000000E+00
    3 H3         -4.358299E-05  -4.073361E-03   0.000000E+00
 -------------   -------------  -------------  -------------
     total        1.315417E-06  -1.675998E-05   0.000000E+00
   
  end of program der1b
   
 Time(der1b)  user:        0.3  user+sys:        0.3  wallclock:        0.5
  
  start of program geopt
  
 ----------------------------------------------------------------------------
  Geometry optimization step   2
  Total energy:        -1.65813913553 hartrees
 ----------------------------------------------------------------------------
  
  energy change:          -1.7373E-05 *  (  5.0000E-05 )
  gradient maximum:        1.3823E-04 *  (  4.5000E-04 )
  gradient rms:            8.6582E-05 *  (  3.0000E-04 )
  displacement maximum:    5.2631E-04 *  (  1.8000E-03 )
  displacement rms:        4.0229E-04 *  (  1.2000E-03 )
  
  predicted energy change:  -6.7026E-08
  step size:     0.00080
  trust radius:  0.30000
  
  ********************************************************
  **           Geometry optimization complete           **
  ********************************************************
  
  Checking the geometry optimization convergence pattern ...
  
  best                    worst
  ==0=====1=====2=====3=====4==
    ^                          
  
  Convergence category 0: monotonic convergence.
  
  Number of imaginary frequencies:   0
  
  center of mass moved by:
     x:     0.0000E+00     y:     0.0000E+00     z:     0.0000E+00
  
  final geometry: 
                                   angstroms
  atom               x                 y                 z
  H1            0.0149960695      0.9722227082      0.0000000000 
  H2            0.0066117192      0.1887411105      0.0000000000 
  H3           -0.0216077887     -1.1609638188      0.0000000000 
   
  Warning: atom           3  is not bonded to any other atoms
  bond lengths (angstroms):
 H1      -H2      :   0.783526
  
  bond angles:
  principal moments of inertia:
        amu*angstrom^2:                 0.00002                 2.34762                 2.34764
                g*cm^2:          2.78971151E-45          3.89832024E-40          3.89834813E-40
   
  rotational constants:
               cm^(-1):        infinite      7.18072056      7.18066917
                   GHz:        infinite    215.27258655    215.27104603
   
  Z-matrix: (angstroms and degrees) 
 H1             0.0149960695             0.9722227082            0.0000000000
 H2             0.0066117192             0.1887411105            0.0000000000
 H3            -0.0216077887            -1.1609638188            0.0000000000
  
  Z-variables: (angstroms and degrees) 
  r = 1.35#
  
  Warning: atom           3  is not bonded to any other atoms
  nuclear repulsion energy.......             1.315394389 hartrees
  -------------------------------------------------
 /  end of geometry optimization iteration   2   /
 -------------------------------------------------
   
  end of program geopt
   
 Time(geopt)  user:        3.8  user+sys:        3.8  wallclock:        6.2
  
  start of program scanner
  
  
 Geometry scan step   2 : (angstroms and degrees) 
  scan:   r = 1.35   energy =       -1.658139
  ================================================
 //       end of geometry scan step   2         //
 ================================================
   
  Molecule is linear 
  Molecular Point Group: Cs      
	Molecule translated to center of mass 
	Molecule reoriented along symmetry axes
  Point Group used: Cs
  
  Warning: atom           3  is not bonded to any other atoms
  detected            2  molecular fragments

 --------------------------------------
   Number of active coords =   0
 --------------------------------------
 --------------------------------------

 
Number of optimization coordinates:     4
Number of independent coordinates:      3
Number of non-redundant coordinates:    4
Number of frozen coordinates:           1
Number of harmonic constraints:         0
 
Number of geometric degrees of freedom:     3
Maximum geometric degrees of freedom:       2
 " " " " " excluding dummy atoms:           2
 
  
  new geometry:
                                   angstroms
  atom               x                 y                 z
  H1            0.0146476805      0.9555596844      0.0000000000 
  H2            0.0062633303      0.1720780867      0.0000000000 
  H3           -0.0209110108     -1.1276377711      0.0000000000 
   
  Z-matrix: (angstroms and degrees) 
 H1             0.0146476805             0.9555596844            0.0000000000
 H2             0.0062633303             0.1720780867            0.0000000000
 H3            -0.0209110108            -1.1276377711            0.0000000000
  
  Z-variables: (angstroms and degrees) 
  r = 1.3#
  
  nuclear repulsion energy.......             1.336422919 hartrees
  end of program scanner
   
 Time(scanner)  user:        4.0  user+sys:        4.0  wallclock:        6.8
  
  start of program onee
  
  smallest eigenvalue of S:    5.191E-02
  number of canonical orbitals.....           15
  end of program onee
   
 Time(onee)  user:        0.3  user+sys:        0.3  wallclock:        0.6
  
  start of program probe
  
  end of program probe
   
 Time(probe)  user:        0.2  user+sys:        0.2  wallclock:        0.4
  
  start of program grid
  
   grid     grid set  grid #  grid sym
  ------    --------  ------  --------
  coarse        0        0        1
  medium        2        1        2
  fine          0        0        1
  ultrafine     4        2        2
  charge        0        0        1
  gradient      4        2        2
  density       0        0        1
  DFT-fine    -11        3        2
  DFT-med.    -10        4        2
  DFT-grad    -12        5        2
  DFT-der2      0        0        1
  DFT-cphf      0        0        1
  LMP2-enrg     4        2        2
  LMP2-grad     2        1        2
  DFT-cphf2     0        0        1
  PBF-dens      0        0        1
  plotting      0        0        1
  Rel-grad    -17        0        1
  
  number of gridpoints: 
     atom        H1       H2       H3    total
  grid # 1       65       56       74      195
  grid # 2      257      214      285      756
  grid # 3     2430     2430     2430     7290
  grid # 4      756      756      756     2268
  grid # 5     3001     3001     3001     9003
   
  end of program grid
   
 Time(grid)  user:        0.3  user+sys:        0.3  wallclock:        0.7
  
  start of program rwr
  
  end of program rwr
   
 Time(rwr)  user:        0.3  user+sys:        0.3  wallclock:        0.4
  
  start of program scf
  
 number of electrons..........          3
 number of alpha electrons....          2
 number of beta electrons.....          1
 number of alpha orbitals.....         15
 number of beta orbitals......         15
 number of alpha occupied orb..         2
 number of alpha virtual orb...        13
 number of beta occupied orb...         1
 number of beta virtual orb....        14
 SCF type: UDFT=PBE(X+LC)+PW91 (PBE-D3)
 Energy computed with NOPS off.
 Convergence Criterion:
    Energy (econv):       1.00E-05
    RMS density (dconv):  5.00E-06
  
       i  u  d  i  g                   
       t  p  i  c  r                                 RMS    maximum
       e  d  i  u  i                       energy  density   DIIS  
       r  t  s  t  d       total energy    change  change    error 
  
etot    1  N  N  2  U      -1.65752277844           9.4E-04  4.0E-03
etot    2  Y  Y  6  M      -1.65766858723  1.5E-04  4.1E-04  1.3E-03
etot    3  Y  Y  6  M      -1.65767561847  7.0E-06  1.1E-04  6.3E-04
etot    4  Y  Y  6  M      -1.65767777741  2.2E-06  5.7E-05  1.5E-04
etot    5  Y  Y  6  M      -1.65767775793 -1.9E-08  3.6E-06  2.1E-05
etot    6  N  N  2  U      -1.65768571928  8.0E-06  0.0E+00  0.0E+00
 
  Computing the dispersion energy correction and its gradients...
  
  
 Energy components, in hartrees:
   (A)  Nuclear repulsion............       1.33642291893
   (E)  Total one-electron terms.....      -4.21807953325
   (I)  Total two-electron terms.....       1.22397089504
   (L)  Electronic energy............      -2.99410863821  (E+I)
   (N0) D3 correction................      -0.00006304522
   (N)  Total energy.................      -1.65774876450  (A+L+N0)
   (O)  Gas phase energy.............      -1.65774876450
  
                                 Total             Coulomb       Exchange+Corr.
 Total two-electron terms       1.22397089504       2.22805131518      -1.00408042014
   Hamiltonian  1........       1.00026254252       1.43367725107      -0.43341470855
   Hamiltonian  2........       0.58276456719       0.79437406411      -0.21160949693
  
 SCFE: SCF energy: UDFT(pbe-d3)        -1.65774876450 hartrees   iterations:   6
  
 
 Alpha HOMO energy:    -0.23739
 Alpha LUMO energy:     0.11924
 
  Alpha Orbital energies (hartrees)/symmetry label: 
    -0.42205 Ap         -0.23739 Ap          0.11924 Ap          0.60356 Ap     
     0.68870 Ap          0.98224 Ap          1.57761 Ap          1.57762 App    
     1.78545 Ap          1.87638 App         1.87639 Ap          2.50217 Ap     
 
 
 Beta HOMO energy:    -0.39258
 Beta LUMO energy:    -0.10708
 
  Beta Orbital energies (hartrees)/symmetry label: 
    -0.39258 Ap         -0.10708 Ap          0.16005 Ap          0.62647 Ap     
     0.85183 Ap          0.99751 Ap          1.59812 Ap          1.59813 App    
     1.89704 Ap          2.07601 App         2.07601 Ap     
 
  
  
    Unrestricted Spin Properties ...
    Sz*(Sz+1)      0.750
    <S**2> ...     0.753
  
  
  end of program scf
   
 Time(scf)  user:        4.2  user+sys:        4.2  wallclock:        8.9
  
  start of program der1a
  
  end of program der1a
   
 Time(der1a)  user:        0.3  user+sys:        0.3  wallclock:        0.6
  
  start of program rwr
  
  end of program rwr
   
 Time(rwr)  user:        0.2  user+sys:        0.2  wallclock:        0.3
  
  start of program der1b
  
   
  forces (hartrees/bohr) : total     
   
 atom  label           x              y              z
 ---- --------   -------------  -------------  -------------
    1 H1          1.168016E-04   3.585341E-03   0.000000E+00
    2 H2         -7.176532E-05   7.521101E-04   0.000000E+00
    3 H3         -4.361479E-05  -4.360314E-03   0.000000E+00
 -------------   -------------  -------------  -------------
     total        1.421540E-06  -2.286226E-05   0.000000E+00
   
  end of program der1b
   
 Time(der1b)  user:        0.3  user+sys:        0.3  wallclock:        0.4
  
  start of program geopt
  
 ----------------------------------------------------------------------------
  Geometry optimization step   1
  Total energy:        -1.65774876450 hartrees
 ----------------------------------------------------------------------------
  
  gradient maximum:        3.5940E-03 .  (  4.5000E-04 )
  gradient rms:            1.7979E-03 .  (  3.0000E-04 )
  displacement maximum:    1.2565E-02 .  (  1.8000E-03 )
  displacement rms:        6.2866E-03 .  (  1.2000E-03 )
  
  predicted energy change:  -2.2610E-05
  step size:     0.01257
  trust radius:  0.30000
  
  molecular structure not yet converged...
  
  center of mass moved by:
     x:    -2.5495E-08     y:     1.2714E-06     z:     0.0000E+00
  
  new geometry: 
                                   angstroms
  atom               x                 y                 z
  H1            0.0147955548      0.9599918421      0.0000000000 
  H2            0.0061013212      0.1698638433      0.0000000000 
  H3           -0.0208968761     -1.1298556854      0.0000000000 
   
  Z-matrix: (angstroms and degrees) 
 H1             0.0147955548             0.9599918421            0.0000000000
 H2             0.0061013212             0.1698638433            0.0000000000
 H3            -0.0208968761            -1.1298556854            0.0000000000
  
  Z-variables: (angstroms and degrees) 
  r = 1.3#
  
  Warning: atom           3  is not bonded to any other atoms
  nuclear repulsion energy.......             1.329931327 hartrees
  -------------------------------------------------
 /  end of geometry optimization iteration   1   /
 -------------------------------------------------
   
  end of program geopt
   
 Time(geopt)  user:        0.3  user+sys:        0.3  wallclock:        0.5
  
  start of program onee
  
  smallest eigenvalue of S:    5.261E-02
  number of canonical orbitals.....           15
  end of program onee
   
 Time(onee)  user:        0.3  user+sys:        0.3  wallclock:        0.4
  
  start of program probe
  
  end of program probe
   
 Time(probe)  user:        0.2  user+sys:        0.2  wallclock:        0.3
  
  start of program grid
  
   grid     grid set  grid #  grid sym
  ------    --------  ------  --------
  coarse        0        0        1
  medium        2        1        2
  fine          0        0        1
  ultrafine     4        2        2
  charge        0        0        1
  gradient      4        2        2
  density       0        0        1
  DFT-fine    -11        3        2
  DFT-med.    -10        4        2
  DFT-grad    -12        5        2
  DFT-der2      0        0        1
  DFT-cphf      0        0        1
  LMP2-enrg     4        2        2
  LMP2-grad     2        1        2
  DFT-cphf2     0        0        1
  PBF-dens      0        0        1
  plotting      0        0        1
  Rel-grad    -17        0        1
  
  number of gridpoints: 
     atom        H1       H2       H3    total
  grid # 1       65       56       74      195
  grid # 2      257      214      285      756
  grid # 3     2430     2430     2430     7290
  grid # 4      756      756      756     2268
  grid # 5     3001     3001     3001     9003
   
  end of program grid
   
 Time(grid)  user:        0.3  user+sys:        0.3  wallclock:        0.5
  
  start of program rwr
  
  end of program rwr
   
 Time(rwr)  user:        0.3  user+sys:        0.3  wallclock:        0.4
  
  start of program scf
  
 Energy computed with NOPS off.
 Convergence Criterion:
    Energy (econv):       1.00E-05
    RMS density (dconv):  5.00E-06
  
       i  u  d  i  g                   
       t  p  i  c  r                                 RMS    maximum
       e  d  i  u  i                       energy  density   DIIS  
       r  t  s  t  d       total energy    change  change    error 
  
etot    1  N  N  2  U      -1.65770102963           1.8E-04  1.3E-03
etot    2  Y  Y  6  M      -1.65771048028  9.5E-06  7.6E-05  3.7E-04
etot    3  Y  Y  6  M      -1.65771004134 -4.4E-07  1.6E-05  8.6E-05
etot    4  N  Y  2  U      -1.65770774300 -2.3E-06  7.8E-06  3.1E-05
etot    5  N  Y  2  U      -1.65770774911  6.1E-09  8.1E-07  7.6E-06
etot    6  N  N  2  U      -1.65770774978  6.6E-10  0.0E+00  0.0E+00
 
  Computing the dispersion energy correction and its gradients...
  
  
 Energy components, in hartrees:
   (A)  Nuclear repulsion............       1.32993132666
   (E)  Total one-electron terms.....      -4.20860942650
   (I)  Total two-electron terms.....       1.22097035007
   (L)  Electronic energy............      -2.98763907643  (E+I)
   (N0) D3 correction................      -0.00006488712
   (N)  Total energy.................      -1.65777263690  (A+L+N0)
   (O)  Gas phase energy.............      -1.65777263690
  
                                 Total             Coulomb       Exchange+Corr.
 Total two-electron terms       1.22097035007       2.22296683416      -1.00199648409
   Hamiltonian  1........       0.99811389967       1.43083625368      -0.43272235401
   Hamiltonian  2........       0.58116656752       0.79213058048      -0.21096401296
  
 SCFE: SCF energy: UDFT(pbe-d3)        -1.65777263690 hartrees   iterations:   6
  
 
 Alpha HOMO energy:    -0.23754
 Alpha LUMO energy:     0.11739
 
  Alpha Orbital energies (hartrees)/symmetry label: 
    -0.42107 Ap         -0.23754 Ap          0.11739 Ap          0.60520 Ap     
     0.68883 Ap          0.97840 Ap          1.57873 Ap          1.57875 App    
     1.78033 Ap          1.87642 App         1.87642 Ap          2.49511 Ap     
 
 
 Beta HOMO energy:    -0.39144
 Beta LUMO energy:    -0.10794
 
  Beta Orbital energies (hartrees)/symmetry label: 
    -0.39144 Ap         -0.10794 Ap          0.15837 Ap          0.62840 Ap     
     0.85111 Ap          0.99358 Ap          1.59942 Ap          1.59943 App    
     1.89063 Ap          2.07513 App         2.07513 Ap     
 
  
  
    Unrestricted Spin Properties ...
    Sz*(Sz+1)      0.750
    <S**2> ...     0.753
  
  
  end of program scf
   
 Time(scf)  user:        3.9  user+sys:        3.9  wallclock:        5.9
  
  start of program der1a
  
  end of program der1a
   
 Time(der1a)  user:        0.3  user+sys:        0.3  wallclock:        0.7
  
  start of program rwr
  
  end of program rwr
   
 Time(rwr)  user:        0.3  user+sys:        0.3  wallclock:        0.3
  
  start of program der1b
  
   
  forces (hartrees/bohr) : total     
   
 atom  label           x              y              z
 ---- --------   -------------  -------------  -------------
    1 H1          7.638975E-05   1.753875E-04   0.000000E+00
    2 H2         -4.024968E-05   3.667177E-03   0.000000E+00
    3 H3         -3.476722E-05  -3.865424E-03   0.000000E+00
 -------------   -------------  -------------  -------------
     total        1.372852E-06  -2.285995E-05   0.000000E+00
   
  end of program der1b
   
 Time(der1b)  user:        0.3  user+sys:        0.3  wallclock:        0.4
  
  start of program geopt
  
 ----------------------------------------------------------------------------
  Geometry optimization step   2
  Total energy:        -1.65777263690 hartrees
 ----------------------------------------------------------------------------
  
  energy change:          -2.3872E-05 *  (  5.0000E-05 )
  gradient maximum:        1.8383E-04 *  (  4.5000E-04 )
  gradient rms:            1.0720E-04 *  (  3.0000E-04 )
  displacement maximum:    6.8322E-04 *  (  1.8000E-03 )
  displacement rms:        5.0260E-04 *  (  1.2000E-03 )
  
  predicted energy change:  -1.0432E-07
  step size:     0.00101
  trust radius:  0.30000
  
  ********************************************************
  **           Geometry optimization complete           **
  ********************************************************
  
  Checking the geometry optimization convergence pattern ...
  
  best                    worst
  ==0=====1=====2=====3=====4==
    ^                          
  
  Convergence category 0: monotonic convergence.
  
  Number of imaginary frequencies:   0
  
  center of mass moved by:
     x:     0.0000E+00     y:     0.0000E+00     z:     0.0000E+00
  
  final geometry: 
                                   angstroms
  atom               x                 y                 z
  H1            0.0147955548      0.9599918421      0.0000000000 
  H2            0.0061013212      0.1698638433      0.0000000000 
  H3           -0.0208968761     -1.1298556854      0.0000000000 
   
  Warning: atom           3  is not bonded to any other atoms
  bond lengths (angstroms):
 H1      -H2      :   0.790176
  
  bond angles:
  principal moments of inertia:
        amu*angstrom^2:                 0.00002                 2.24512                 2.24514
                g*cm^2:          2.52017311E-45          3.72811138E-40          3.72813658E-40
   
  rotational constants:
               cm^(-1):        infinite      7.50856007      7.50850932
                   GHz:        infinite    225.10096801    225.09944636
   
  Z-matrix: (angstroms and degrees) 
 H1             0.0147955548             0.9599918421            0.0000000000
 H2             0.0061013212             0.1698638433            0.0000000000
 H3            -0.0208968761            -1.1298556854            0.0000000000
  
  Z-variables: (angstroms and degrees) 
  r = 1.3#
  
  Warning: atom           3  is not bonded to any other atoms
  nuclear repulsion energy.......             1.329931327 hartrees
  -------------------------------------------------
 /  end of geometry optimization iteration   2   /
 -------------------------------------------------
   
  end of program geopt
   
 Time(geopt)  user:        3.2  user+sys:        3.2  wallclock:        4.7
  
  start of program scanner
  
  
 Geometry scan step   3 : (angstroms and degrees) 
  scan:   r = 1.3   energy =       -1.657773
  ================================================
 //       end of geometry scan step   3         //
 ================================================
   
  Molecule is linear 
  Molecular Point Group: Cs      
	Molecule translated to center of mass 
	Molecule reoriented along symmetry axes
  Point Group used: Cs
  
  Warning: atom           3  is not bonded to any other atoms
  detected            2  molecular fragments

 --------------------------------------
   Number of active coords =   0
 --------------------------------------
 --------------------------------------

 
Number of optimization coordinates:     4
Number of independent coordinates:      3
Number of non-redundant coordinates:    4
Number of frozen coordinates:           1
Number of harmonic constraints:         0
 
Number of geometric degrees of freedom:     3
Maximum geometric degrees of freedom:       2
 " " " " " excluding dummy atoms:           2
 
  
  new geometry:
                                   angstroms
  atom               x                 y                 z
  H1            0.0144494241      0.9433287712      0.0000000000 
  H2            0.0057551905      0.1532007725      0.0000000000 
  H3           -0.0202046146     -1.0965295436      0.0000000000 
   
  Z-matrix: (angstroms and degrees) 
 H1             0.0144494241             0.9433287712            0.0000000000
 H2             0.0057551905             0.1532007725            0.0000000000
 H3            -0.0202046146            -1.0965295436            0.0000000000
  
  Z-variables: (angstroms and degrees) 
  r = 1.25#
  
  nuclear repulsion energy.......             1.352418499 hartrees
  end of program scanner
   
 Time(scanner)  user:        3.6  user+sys:        3.6  wallclock:        5.5
  
  start of program onee
  
  smallest eigenvalue of S:    5.019E-02
  number of canonical orbitals.....           15
  end of program onee
   
 Time(onee)  user:        0.3  user+sys:        0.3  wallclock:        0.5
  
  start of program probe
  
  end of program probe
   
 Time(probe)  user:        0.3  user+sys:        0.3  wallclock:        0.3
  
  start of program grid
  
   grid     grid set  grid #  grid sym
  ------    --------  ------  --------
  coarse        0        0        1
  medium        2        1        2
  fine          0        0        1
  ultrafine     4        2        2
  charge        0        0        1
  gradient      4        2        2
  density       0        0        1
  DFT-fine    -11        3        2
  DFT-med.    -10        4        2
  DFT-grad    -12        5        2
  DFT-der2      0        0        1
  DFT-cphf      0        0        1
  LMP2-enrg     4        2        2
  LMP2-grad     2        1        2
  DFT-cphf2     0        0        1
  PBF-dens      0        0        1
  plotting      0        0        1
  Rel-grad    -17        0        1
  
  number of gridpoints: 
     atom        H1       H2       H3    total
  grid # 1       65       53       71      189
  grid # 2      257      213      284      754
  grid # 3     2430     2430     2430     7290
  grid # 4      756      756      756     2268
  grid # 5     3001     3001     3001     9003
   
  end of program grid
   
 Time(grid)  user:        0.3  user+sys:        0.3  wallclock:        0.5
  
  start of program rwr
  
  end of program rwr
   
 Time(rwr)  user:        0.3  user+sys:        0.3  wallclock:        0.4
  
  start of program scf
  
 number of electrons..........          3
 number of alpha electrons....          2
 number of beta electrons.....          1
 number of alpha orbitals.....         15
 number of beta orbitals......         15
 number of alpha occupied orb..         2
 number of alpha virtual orb...        13
 number of beta occupied orb...         1
 number of beta virtual orb....        14
 SCF type: UDFT=PBE(X+LC)+PW91 (PBE-D3)
 Energy computed with NOPS off.
 Convergence Criterion:
    Energy (econv):       1.00E-05
    RMS density (dconv):  5.00E-06
  
       i  u  d  i  g                   
       t  p  i  c  r                                 RMS    maximum
       e  d  i  u  i                       energy  density   DIIS  
       r  t  s  t  d       total energy    change  change    error 
  
etot    1  N  N  2  U      -1.65715793915           1.0E-03  4.3E-03
etot    2  Y  Y  6  M      -1.65732866515  1.7E-04  4.7E-04  1.4E-03
etot    3  Y  Y  6  M      -1.65733693932  8.3E-06  1.2E-04  7.2E-04
etot    4  Y  Y  6  M      -1.65733977324  2.8E-06  6.6E-05  1.5E-04
etot    5  Y  Y  6  M      -1.65733972878 -4.4E-08  4.3E-06  2.7E-05
etot    6  N  N  2  U      -1.65734647111  6.7E-06  0.0E+00  0.0E+00
 
  Computing the dispersion energy correction and its gradients...
  
  
 Energy components, in hartrees:
   (A)  Nuclear repulsion............       1.35241849910
   (E)  Total one-electron terms.....      -4.24611068843
   (I)  Total two-electron terms.....       1.23634571822
   (L)  Electronic energy............      -3.00976497021  (E+I)
   (N0) D3 correction................      -0.00005448971
   (N)  Total energy.................      -1.65740096082  (A+L+N0)
   (O)  Gas phase energy.............      -1.65740096082
  
                                 Total             Coulomb       Exchange+Corr.
 Total two-electron terms       1.23634571822       2.24014524634      -1.00379952812
   Hamiltonian  1........       1.00949210707       1.44367525206      -0.43418314500
   Hamiltonian  2........       0.58573660249       0.79646999428      -0.21073339178
  
 SCFE: SCF energy: UDFT(pbe-d3)        -1.65740096082 hartrees   iterations:   6
  
 
 Alpha HOMO energy:    -0.23331
 Alpha LUMO energy:     0.12092
 
  Alpha Orbital energies (hartrees)/symmetry label: 
    -0.42700 Ap         -0.23331 Ap          0.12092 Ap          0.60750 Ap     
     0.68602 Ap          0.97263 Ap          1.56930 Ap          1.56931 App    
     1.78024 Ap          1.87791 App         1.87792 Ap          2.50206 Ap     
 
 
 Beta HOMO energy:    -0.39534
 Beta LUMO energy:    -0.10975
 
  Beta Orbital energies (hartrees)/symmetry label: 
    -0.39534 Ap         -0.10975 Ap          0.16336 Ap          0.63217 Ap     
     0.83776 Ap          0.99179 Ap          1.59334 Ap          1.59335 App    
     1.88656 Ap          2.06305 App         2.06305 Ap     
 
  
  
    Unrestricted Spin Properties ...
    Sz*(Sz+1)      0.750
    <S**2> ...     0.754
  
  
  end of program scf
   
 Time(scf)  user:        3.5  user+sys:        3.5  wallclock:        4.9
  
  start of program der1a
  
  end of program der1a
   
 Time(der1a)  user:        0.3  user+sys:        0.3  wallclock:        0.8
  
  start of program rwr
  
  end of program rwr
   
 Time(rwr)  user:        0.3  user+sys:        0.3  wallclock:        0.3
  
  start of program der1b
  
   
  forces (hartrees/bohr) : total     
   
 atom  label           x              y              z
 ---- --------   -------------  -------------  -------------
    1 H1          1.281477E-04   4.172571E-03   0.000000E+00
    2 H2         -9.086718E-05   3.231722E-05   0.000000E+00
    3 H3         -3.628609E-05  -4.233645E-03   0.000000E+00
 -------------   -------------  -------------  -------------
     total        9.944643E-07  -2.875693E-05   0.000000E+00
   
  end of program der1b
   
 Time(der1b)  user:        0.3  user+sys:        0.3  wallclock:        0.5
  
  start of program geopt
  
 ----------------------------------------------------------------------------
  Geometry optimization step   1
  Total energy:        -1.65740096082 hartrees
 ----------------------------------------------------------------------------
  
  gradient maximum:        4.1833E-03 .  (  4.5000E-04 )
  gradient rms:            2.0925E-03 .  (  3.0000E-04 )
  displacement maximum:    1.5424E-02 .  (  1.8000E-03 )
  displacement rms:        7.7400E-03 .  (  1.2000E-03 )
  
  predicted energy change:  -3.2351E-05
  step size:     0.01548
  trust radius:  0.30000
  
  molecular structure not yet converged...
  
  center of mass moved by:
     x:    -8.0767E-08     y:     1.5601E-06     z:     0.0000E+00
  
  new geometry: 
                                   angstroms
  atom               x                 y                 z
  H1            0.0147820964      0.9487683264      0.0000000000 
  H2            0.0053068579      0.1504867889      0.0000000000 
  H3           -0.0200889543     -1.0992551153      0.0000000000 
   
  Z-matrix: (angstroms and degrees) 
 H1             0.0147820964             0.9487683264            0.0000000000
 H2             0.0053068579             0.1504867889            0.0000000000
 H3            -0.0200889543            -1.0992551153            0.0000000000
  
  Z-variables: (angstroms and degrees) 
  r = 1.25#
  
  Warning: atom           3  is not bonded to any other atoms
  nuclear repulsion energy.......             1.344537479 hartrees
  -------------------------------------------------
 /  end of geometry optimization iteration   1   /
 -------------------------------------------------
   
  end of program geopt
   
 Time(geopt)  user:        0.3  user+sys:        0.3  wallclock:        0.5
  
  start of program onee
  
  smallest eigenvalue of S:    5.100E-02
  number of canonical orbitals.....           15
  end of program onee
   
 Time(onee)  user:        0.3  user+sys:        0.3  wallclock:        0.4
  
  start of program probe
  
  end of program probe
   
 Time(probe)  user:        0.2  user+sys:        0.2  wallclock:        0.3
  
  start of program grid
  
   grid     grid set  grid #  grid sym
  ------    --------  ------  --------
  coarse        0        0        1
  medium        2        1        2
  fine          0        0        1
  ultrafine     4        2        2
  charge        0        0        1
  gradient      4        2        2
  density       0        0        1
  DFT-fine    -11        3        2
  DFT-med.    -10        4        2
  DFT-grad    -12        5        2
  DFT-der2      0        0        1
  DFT-cphf      0        0        1
  LMP2-enrg     4        2        2
  LMP2-grad     2        1        2
  DFT-cphf2     0        0        1
  PBF-dens      0        0        1
  plotting      0        0        1
  Rel-grad    -17        0        1
  
  number of gridpoints: 
     atom        H1       H2       H3    total
  grid # 1       65       53       71      189
  grid # 2      257      213      284      754
  grid # 3     2430     2430     2430     7290
  grid # 4      756      756      756     2268
  grid # 5     3001     3001     3001     9003
   
  end of program grid
   
 Time(grid)  user:        0.3  user+sys:        0.3  wallclock:        0.5
  
  start of program rwr
  
  end of program rwr
   
 Time(rwr)  user:        0.2  user+sys:        0.2  wallclock:        0.4
  
  start of program scf
  
 Energy computed with NOPS off.
 Convergence Criterion:
    Energy (econv):       1.00E-05
    RMS density (dconv):  5.00E-06
  
       i  u  d  i  g                   
       t  p  i  c  r                                 RMS    maximum
       e  d  i  u  i                       energy  density   DIIS  
       r  t  s  t  d       total energy    change  change    error 
  
etot    1  N  N  2  U      -1.65736828497           2.3E-04  1.5E-03
etot    2  Y  Y  6  M      -1.65738161402  1.3E-05  1.0E-04  4.6E-04
etot    3  Y  Y  6  M      -1.65738125455 -3.6E-07  2.3E-05  1.2E-04
etot    4  N  Y  2  U      -1.65737855139 -2.7E-06  1.1E-05  4.1E-05
etot    5  N  Y  2  U      -1.65737856248  1.1E-08  1.1E-06  9.6E-06
etot    6  N  N  2  U      -1.65737856340  9.2E-10  0.0E+00  0.0E+00
 
  Computing the dispersion energy correction and its gradients...
  
  
 Energy components, in hartrees:
   (A)  Nuclear repulsion............       1.34453747931
   (E)  Total one-electron terms.....      -4.23458922497
   (I)  Total two-electron terms.....       1.23267318226
   (L)  Electronic energy............      -3.00191604271  (E+I)
   (N0) D3 correction................      -0.00005668070
   (N)  Total energy.................      -1.65743524410  (A+L+N0)
   (O)  Gas phase energy.............      -1.65743524410
  
                                 Total             Coulomb       Exchange+Corr.
 Total two-electron terms       1.23267318226       2.23396451512      -1.00129133285
   Hamiltonian  1........       1.00685242407       1.44019938917      -0.43334696510
   Hamiltonian  2........       0.58380632824       0.79376512595      -0.20995879770
  
 SCFE: SCF energy: UDFT(pbe-d3)        -1.65743524410 hartrees   iterations:   6
  
 
 Alpha HOMO energy:    -0.23353
 Alpha LUMO energy:     0.11872
 
  Alpha Orbital energies (hartrees)/symmetry label: 
    -0.42579 Ap         -0.23353 Ap          0.11872 Ap          0.60944 Ap     
     0.68619 Ap          0.96812 Ap          1.57073 Ap          1.57074 App    
     1.77362 Ap          1.87799 App         1.87799 Ap          2.49349 Ap     
 
 
 Beta HOMO energy:    -0.39395
 Beta LUMO energy:    -0.11080
 
  Beta Orbital energies (hartrees)/symmetry label: 
    -0.39395 Ap         -0.11080 Ap          0.16137 Ap          0.63453 Ap     
     0.83691 Ap          0.98710 Ap          1.59501 Ap          1.59501 App    
     1.87861 Ap          2.06198 App         2.06199 Ap     
 
  
  
    Unrestricted Spin Properties ...
    Sz*(Sz+1)      0.750
    <S**2> ...     0.754
  
  
  end of program scf
   
 Time(scf)  user:        3.9  user+sys:        3.9  wallclock:        6.2
  
  start of program der1a
  
  end of program der1a
   
 Time(der1a)  user:        0.3  user+sys:        0.3  wallclock:        0.8
  
  start of program rwr
  
  end of program rwr
   
 Time(rwr)  user:        0.3  user+sys:        0.3  wallclock:        0.4
  
  start of program der1b
  
   
  forces (hartrees/bohr) : total     
   
 atom  label           x              y              z
 ---- --------   -------------  -------------  -------------
    1 H1          7.320181E-05   2.349181E-04   0.000000E+00
    2 H2         -4.522419E-05   3.271334E-03   0.000000E+00
    3 H3         -2.713617E-05  -3.534780E-03   0.000000E+00
 -------------   -------------  -------------  -------------
     total        8.414465E-07  -2.852793E-05   0.000000E+00
   
  end of program der1b
   
 Time(der1b)  user:        0.3  user+sys:        0.3  wallclock:        0.4
  
  start of program geopt
  
 ----------------------------------------------------------------------------
  Geometry optimization step   2
  Total energy:        -1.65743524410 hartrees
 ----------------------------------------------------------------------------
  
  energy change:          -3.4283E-05 *  (  5.0000E-05 )
  gradient maximum:        2.4528E-04 *  (  4.5000E-04 )
  gradient rms:            1.3344E-04 *  (  3.0000E-04 )
  displacement maximum:    9.9257E-04 *  (  1.8000E-03 )
  displacement rms:        6.2910E-04 *  (  1.2000E-03 )
  
  predicted energy change:  -1.6241E-07
  step size:     0.00126
  trust radius:  0.30000
  
  ********************************************************
  **           Geometry optimization complete           **
  ********************************************************
  
  Checking the geometry optimization convergence pattern ...
  
  best                    worst
  ==0=====1=====2=====3=====4==
    ^                          
  
  Convergence category 0: monotonic convergence.
  
  Number of imaginary frequencies:   0
  
  center of mass moved by:
     x:     0.0000E+00     y:     0.0000E+00     z:     0.0000E+00
  
  final geometry: 
                                   angstroms
  atom               x                 y                 z
  H1            0.0147820964      0.9487683264      0.0000000000 
[...]
etot    2  Y  Y  6  M      -1.66085366283  7.6E-05  1.1E-04  8.2E-04
etot    3  Y  Y  6  M      -1.66085566234  2.0E-06  4.3E-05  4.3E-04
etot    4  N  Y  2  U      -1.66085918635  3.5E-06  1.5E-05  1.3E-04
etot    5  N  Y  2  U      -1.66085922215  3.6E-08  1.4E-06  1.5E-05
etot    6  N  N  2  U      -1.66085922281  6.6E-10  0.0E+00  0.0E+00
 
  Computing the dispersion energy correction and its gradients...
  
  
 Energy components, in hartrees:
   (A)  Nuclear repulsion............       1.07442735159
   (E)  Total one-electron terms.....      -3.75029208479
   (I)  Total two-electron terms.....       1.01500551038
   (L)  Electronic energy............      -2.73528657440  (E+I)
   (N0) D3 correction................      -0.00020428670
   (N)  Total energy.................      -1.66106350951  (A+L+N0)
   (O)  Gas phase energy.............      -1.66106350951
  
                                 Total             Coulomb       Exchange+Corr.
 Total two-electron terms       1.01500551038       2.00509783848      -0.99009232809
   Hamiltonian  1........       0.84409309047       1.26330931995      -0.41921622947
   Hamiltonian  2........       0.52589837987       0.74178851853      -0.21589013866
  
 SCFE: SCF energy: UDFT(pbe-d3)        -1.66106350951 hartrees   iterations:   6
  
 
 Alpha HOMO energy:    -0.27220
 Alpha LUMO energy:     0.07389
 
  Alpha Orbital energies (hartrees): 
    -0.37088    -0.27220     0.07389     0.56086     0.71855     0.96830
     1.61852     1.61854     1.87033     1.87036     1.91826     2.20286
 
 
 Beta HOMO energy:    -0.36723
 Beta LUMO energy:    -0.01897
 
  Beta Orbital energies (hartrees): 
    -0.36723    -0.01897     0.10822     0.58257     0.95949     1.06226
     1.61993     1.61995     2.20179     2.25818     2.25818
 
  
  
    Unrestricted Spin Properties ...
    Sz*(Sz+1)      0.750
    <S**2> ...     0.750
  
  
  end of program scf
   
 Time(scf)  user:        3.8  user+sys:        3.8  wallclock:        5.2
  
  start of program der1a
  
  end of program der1a
   
 Time(der1a)  user:        0.2  user+sys:        0.2  wallclock:        0.6
  
  start of program rwr
  
  end of program rwr
   
 Time(rwr)  user:        0.2  user+sys:        0.2  wallclock:        0.3
  
  start of program der1b
  
   
  forces (hartrees/bohr) : total     
   
 atom  label           x              y              z
 ---- --------   -------------  -------------  -------------
    1 H1          1.114063E-05   5.687231E-04  -1.542535E-09
    2 H2         -1.353584E-03  -2.837873E-02  -5.528208E-07
    3 H3          1.335233E-03   2.777930E-02   5.393219E-07
 -------------   -------------  -------------  -------------
     total       -7.210024E-06  -3.070208E-05  -1.504144E-08
   
  end of program der1b
   
 Time(der1b)  user:        0.3  user+sys:        0.3  wallclock:        0.5
  
  start of program geopt
  
 ----------------------------------------------------------------------------
  Geometry optimization step   8
  Total energy:        -1.66106350951 hartrees
 ----------------------------------------------------------------------------
  
  
  Level shifts adjusted to satisfy step-size constraints
   Step size:    0.3007662
   Cos(theta):   0.9941438
   Final level shift:  -6.5187491E-04
  
  energy change:          -2.2769E-04 .  (  5.0000E-05 )
  gradient maximum:        5.7902E-04 .  (  4.5000E-04 )
  gradient rms:            2.9086E-04 *  (  3.0000E-04 )
  displacement maximum:    3.0075E-01 .  (  1.8000E-03 )
  displacement rms:        1.5038E-01 .  (  1.2000E-03 )
  
  predicted energy change:  -1.1645E-04
  step size:     0.30077
  trust radius:  0.30000
  
  molecular structure not yet converged...
  
  center of mass moved by:
     x:     2.2462E-07     y:     3.0399E-05     z:     3.8132E-10
  
  new geometry: 
                                   angstroms
  atom               x                 y                 z
  H1            0.0233028465      1.7884132783     -0.0000043045 
  H2            0.0066763221     -0.5946904920      0.0000109303 
  H3           -0.0331751204     -1.3936972316     -0.0000066268 
   
  Z-matrix: (angstroms and degrees) 
 H1             0.0233028465             1.7884132783            -0.0000043045
 H2             0.0066763221            -0.5946904920             0.0000109303
 H3            -0.0331751204            -1.3936972316            -0.0000066268
  
  Z-variables: (angstroms and degrees) 
  r = 0.8#
  
  Warning: atom           1  is not bonded to any other atoms
  nuclear repulsion energy.......             1.049791314 hartrees
  -------------------------------------------------
 /  end of geometry optimization iteration   8   /
 -------------------------------------------------
   
  end of program geopt
   
 Time(geopt)  user:        0.3  user+sys:        0.3  wallclock:        0.5
  
  start of program onee
  
  smallest eigenvalue of S:    9.534E-02
  number of canonical orbitals.....           15
  end of program onee
   
 Time(onee)  user:        0.3  user+sys:        0.3  wallclock:        0.3
  
  start of program probe
  
  end of program probe
   
 Time(probe)  user:        0.2  user+sys:        0.2  wallclock:        0.3
  
  start of program grid
  
   grid     grid set  grid #  grid sym
  ------    --------  ------  --------
  coarse        0        0        1
  medium        2        1        2
  fine          0        0        1
  ultrafine     4        2        2
  charge        0        0        1
  gradient      4        2        2
  density       0        0        1
  DFT-fine    -11        3        2
  DFT-med.    -10        4        2
  DFT-grad    -12        5        2
  DFT-der2      0        0        1
  DFT-cphf      0        0        1
  LMP2-enrg     4        2        2
  LMP2-grad     2        1        2
  DFT-cphf2     0        0        1
  PBF-dens      0        0        1
  plotting      0        0        1
  Rel-grad    -17        0        1
  
  number of gridpoints: 
     atom        H1       H2       H3    total
  grid # 1      135      104      108      347
  grid # 2      529      412      435     1376
  grid # 3     4304     4304     4304    12912
  grid # 4     1192     1192     1192     3576
  grid # 5     5226     5226     5226    15678
   
  end of program grid
   
 Time(grid)  user:        0.2  user+sys:        0.2  wallclock:        0.5
  
  start of program rwr
  
  end of program rwr
   
 Time(rwr)  user:        0.3  user+sys:        0.3  wallclock:        0.3
  
  start of program scf
  
 Energy computed with NOPS off.
 Convergence Criterion:
    Energy (econv):       1.00E-05
    RMS density (dconv):  5.00E-06
  
       i  u  d  i  g                   
       t  p  i  c  r                                 RMS    maximum
       e  d  i  u  i                       energy  density   DIIS  
       r  t  s  t  d       total energy    change  change    error 
  
etot    1  N  N  2  U      -1.66091615432           5.6E-04  3.3E-03
etot    2  Y  Y  6  M      -1.66095993818  4.4E-05  6.5E-05  5.0E-04
etot    3  Y  Y  6  M      -1.66096077470  8.4E-07  2.7E-05  2.6E-04
etot    4  N  Y  2  U      -1.66096229558  1.5E-06  1.0E-05  9.1E-05
etot    5  N  Y  2  U      -1.66096231303  1.7E-08  8.6E-07  1.2E-05
etot    6  N  N  2  U      -1.66096231332  2.9E-10  0.0E+00  0.0E+00
 
  Computing the dispersion energy correction and its gradients...
  
  
 Energy components, in hartrees:
   (A)  Nuclear repulsion............       1.04979131392
   (E)  Total one-electron terms.....      -3.70224376998
   (I)  Total two-electron terms.....       0.99149014274
   (L)  Electronic energy............      -2.71075362724  (E+I)
   (N0) D3 correction................      -0.00022174753
   (N)  Total energy.................      -1.66118406085  (A+L+N0)
   (O)  Gas phase energy.............      -1.66118406085
  
                                 Total             Coulomb       Exchange+Corr.
 Total two-electron terms       0.99149014274       1.98116796994      -0.98967782720
   Hamiltonian  1........       0.82644201764       1.24503923055      -0.41859721291
   Hamiltonian  2........       0.51995373737       0.73612873939      -0.21617500202
  
 SCFE: SCF energy: UDFT(pbe-d3)        -1.66118406085 hartrees   iterations:   6
  
 
 Alpha HOMO energy:    -0.27288
 Alpha LUMO energy:     0.07053
 
  Alpha Orbital energies (hartrees): 
    -0.36943    -0.27288     0.07053     0.55685     0.71161     0.97093
     1.61867     1.61868     1.87085     1.87086     1.89984     2.20252
 
 
 Beta HOMO energy:    -0.36714
 Beta LUMO energy:     0.00042
 
  Beta Orbital energies (hartrees): 
    -0.36714     0.00042     0.10768     0.57875     0.95147     1.09980
     1.61958     1.61960     2.20077     2.29633     2.29633
 
  
  
    Unrestricted Spin Properties ...
    Sz*(Sz+1)      0.750
    <S**2> ...     0.750
  
  
  end of program scf
   
 Time(scf)  user:        3.9  user+sys:        3.9  wallclock:        5.6
  
  start of program der1a
  
  end of program der1a
   
 Time(der1a)  user:        0.3  user+sys:        0.3  wallclock:        0.7
  
  start of program rwr
  
  end of program rwr
   
 Time(rwr)  user:        0.2  user+sys:        0.2  wallclock:        0.3
  
  start of program der1b
  
   
  forces (hartrees/bohr) : total     
   
 atom  label           x              y              z
 ---- --------   -------------  -------------  -------------
    1 H1          3.409950E-06   2.532959E-04   5.871874E-09
    2 H2         -1.452921E-03  -2.856712E-02  -6.489445E-07
    3 H3          1.441039E-03   2.830890E-02   6.411542E-07
 -------------   -------------  -------------  -------------
     total       -8.472358E-06  -4.926839E-06  -1.918446E-09
   
  end of program der1b
   
 Time(der1b)  user:        0.3  user+sys:        0.3  wallclock:        0.5
  
  start of program geopt
  
 ----------------------------------------------------------------------------
  Geometry optimization step   9
  Total energy:        -1.66118406085 hartrees
 ----------------------------------------------------------------------------
  
  energy change:          -1.2055E-04 .  (  5.0000E-05 )
  gradient maximum:        2.5494E-04 *  (  4.5000E-04 )
  gradient rms:            1.2924E-04 *  (  3.0000E-04 )
  displacement maximum:    2.2434E-01 .  (  1.8000E-03 )
  displacement rms:        1.1218E-01 .  (  1.2000E-03 )
  
  predicted energy change:  -2.9981E-05
  step size:     0.22435
  trust radius:  0.30000
  
  molecular structure not yet converged...
  
  center of mass moved by:
     x:     1.6294E-07     y:     2.2671E-05     z:     2.9873E-10
  
  new geometry: 
                                   angstroms
  atom               x                 y                 z
  H1            0.0240750639      1.8675264928     -0.0000047856 
  H2            0.0071911454     -0.6342930529      0.0000121691 
  H3           -0.0344621612     -1.4332078852     -0.0000073845 
   
  Z-matrix: (angstroms and degrees) 
 H1             0.0240750639             1.8675264928            -0.0000047856
 H2             0.0071911454            -0.6342930529             0.0000121691
 H3            -0.0344621612            -1.4332078852            -0.0000073845
  
  Z-variables: (angstroms and degrees) 
  r = 0.8#
  
  Warning: atom           1  is not bonded to any other atoms
  nuclear repulsion energy.......             1.033279530 hartrees
  -------------------------------------------------
 /  end of geometry optimization iteration   9   /
 -------------------------------------------------
   
  end of program geopt
   
 Time(geopt)  user:        0.3  user+sys:        0.3  wallclock:        0.5
  
  start of program onee
  
  smallest eigenvalue of S:    9.795E-02
  number of canonical orbitals.....           15
  end of program onee
   
 Time(onee)  user:        0.3  user+sys:        0.3  wallclock:        0.5
  
  start of program probe
  
  end of program probe
   
 Time(probe)  user:        0.2  user+sys:        0.2  wallclock:        0.3
  
  start of program grid
  
   grid     grid set  grid #  grid sym
  ------    --------  ------  --------
  coarse        0        0        1
  medium        2        1        2
  fine          0        0        1
  ultrafine     4        2        2
  charge        0        0        1
  gradient      4        2        2
  density       0        0        1
  DFT-fine    -11        3        2
  DFT-med.    -10        4        2
  DFT-grad    -12        5        2
  DFT-der2      0        0        1
  DFT-cphf      0        0        1
  LMP2-enrg     4        2        2
  LMP2-grad     2        1        2
  DFT-cphf2     0        0        1
  PBF-dens      0        0        1
  plotting      0        0        1
  Rel-grad    -17        0        1
  
  number of gridpoints: 
     atom        H1       H2       H3    total
  grid # 1      137      107      108      352
  grid # 2      533      416      435     1384
  grid # 3     4304     4304     4304    12912
  grid # 4     1192     1192     1192     3576
  grid # 5     5226     5226     5226    15678
   
  end of program grid
   
 Time(grid)  user:        0.3  user+sys:        0.3  wallclock:        0.5
  
  start of program rwr
  
  end of program rwr
   
 Time(rwr)  user:        0.2  user+sys:        0.2  wallclock:        0.3
  
  start of program scf
  
 Energy computed with NOPS off.
 Convergence Criterion:
    Energy (econv):       1.00E-05
    RMS density (dconv):  5.00E-06
  
       i  u  d  i  g                   
       t  p  i  c  r                                 RMS    maximum
       e  d  i  u  i                       energy  density   DIIS  
       r  t  s  t  d       total energy    change  change    error 
  
etot    1  N  N  2  U      -1.66098092133           3.4E-04  2.1E-03
etot    2  Y  Y  6  M      -1.66099645639  1.6E-05  3.3E-05  2.5E-04
etot    3  N  Y  2  U      -1.66099719340  7.4E-07  1.4E-05  1.3E-04
etot    4  N  Y  2  U      -1.66099722519  3.2E-08  5.4E-06  5.2E-05
etot    5  N  Y  2  U      -1.66099723064  5.4E-09  4.0E-07  6.0E-06
etot    6  N  N  2  U      -1.66099723071  7.1E-11  0.0E+00  0.0E+00
 
  Computing the dispersion energy correction and its gradients...
  
  
 Energy components, in hartrees:
   (A)  Nuclear repulsion............       1.03327953018
   (E)  Total one-electron terms.....      -3.66976273313
   (I)  Total two-electron terms.....       0.97548597224
   (L)  Electronic energy............      -2.69427676089  (E+I)
   (N0) D3 correction................      -0.00021882039
   (N)  Total energy.................      -1.66121605109  (A+L+N0)
   (O)  Gas phase energy.............      -1.66121605109
  
                                 Total             Coulomb       Exchange+Corr.
 Total two-electron terms       0.97548597224       1.96495769705      -0.98947172481
   Hamiltonian  1........       0.81442740528       1.23271234364      -0.41828493836
   Hamiltonian  2........       0.51592629635       0.73224535341      -0.21631905705
  
 SCFE: SCF energy: UDFT(pbe-d3)        -1.66121605109 hartrees   iterations:   6
  
 
 Alpha HOMO energy:    -0.27311
 Alpha LUMO energy:     0.06863
 
  Alpha Orbital energies (hartrees): 
    -0.36878    -0.27311     0.06863     0.55514     0.70519     0.97209
     1.61867     1.61868     1.87121     1.87122     1.89025     2.20210
 
 
 Beta HOMO energy:    -0.36717
 Beta LUMO energy:     0.01490
 
  Beta Orbital energies (hartrees): 
    -0.36717     0.01490     0.10995     0.57664     0.94797     1.12836
     1.61932     1.61933     2.20093     2.33010     2.33010
 
  
  
    Unrestricted Spin Properties ...
    Sz*(Sz+1)      0.750
    <S**2> ...     0.750
  
  
  end of program scf
   
 Time(scf)  user:        3.4  user+sys:        3.4  wallclock:        4.8
  
  start of program der1a
  
  end of program der1a
   
 Time(der1a)  user:        0.3  user+sys:        0.3  wallclock:        0.6
  
  start of program rwr
  
  end of program rwr
   
 Time(rwr)  user:        0.3  user+sys:        0.3  wallclock:        0.4
  
  start of program der1b
  
   
  forces (hartrees/bohr) : total     
   
 atom  label           x              y              z
 ---- --------   -------------  -------------  -------------
    1 H1          1.585159E-06   9.437510E-05  -3.428672E-09
    2 H2         -1.522205E-03  -2.860936E-02  -7.229639E-07
    3 H3          1.514413E-03   2.859477E-02   7.160335E-07
 -------------   -------------  -------------  -------------
     total       -6.207186E-06   7.978485E-05  -1.035910E-08
   
  end of program der1b
   
 Time(der1b)  user:        0.3  user+sys:        0.3  wallclock:        0.4
  
  start of program geopt
  
 ----------------------------------------------------------------------------
  Geometry optimization step  10
  Total energy:        -1.66121605109 hartrees
 ----------------------------------------------------------------------------
  
  energy change:          -3.1990E-05 *  (  5.0000E-05 )
  gradient maximum:        6.7776E-05 #  (  4.5000E-04 )
  gradient rms:            3.8380E-05 #  (  3.0000E-04 )
  displacement maximum:    8.0256E-02 .  (  1.8000E-03 )
  displacement rms:        4.0130E-02 .  (  1.2000E-03 )
  
  predicted energy change:  -2.7244E-06
  step size:     0.08026
  trust radius:  0.30000
  
  ********************************************************
  **           Geometry optimization complete           **
  ********************************************************
  
  Checking the geometry optimization convergence pattern ...
  
  best                    worst
  ==0=====1=====2=====3=====4==
    ^                          
  
  Convergence category 0: monotonic convergence.
  
  Number of imaginary frequencies:   0
  
  center of mass moved by:
     x:     0.0000E+00     y:     0.0000E+00     z:     0.0000E+00
  
  final geometry: 
                                   angstroms
  atom               x                 y                 z
  H1            0.0240750639      1.8675264928     -0.0000047856 
  H2            0.0071911454     -0.6342930529      0.0000121691 
  H3           -0.0344621612     -1.4332078852     -0.0000073845 
   
  Warning: atom           1  is not bonded to any other atoms
  bond lengths (angstroms):
 H2      -H3      :   0.800000
  
  bond angles:
  principal moments of inertia:
        amu*angstrom^2:                 0.00047                 5.97851                 5.97898
                g*cm^2:          7.73951516E-44          9.92754766E-40          9.92832161E-40
   
  rotational constants:
               cm^(-1):        infinite      2.81970424      2.81948444
                   GHz:        infinite     84.53260656     84.52601691
   
  Z-matrix: (angstroms and degrees) 
 H1             0.0240750639             1.8675264928            -0.0000047856
 H2             0.0071911454            -0.6342930529             0.0000121691
 H3            -0.0344621612            -1.4332078852            -0.0000073845
  
  Z-variables: (angstroms and degrees) 
  r = 0.8#
  
  Warning: atom           1  is not bonded to any other atoms
  nuclear repulsion energy.......             1.033279530 hartrees
  -------------------------------------------------
 /  end of geometry optimization iteration  10   /
 -------------------------------------------------
   
  end of program geopt
   
 Time(geopt)  user:        3.2  user+sys:        3.2  wallclock:        4.6
  
  start of program scanner
  
  
 Geometry scan step  13 : (angstroms and degrees) 
  scan:   r = 0.8   energy =       -1.661216
  
  Geometry scan complete
  
  Writing scan .grd file for Maestro visualization.                             
  end of program scanner
   
 Time(scanner)  user:        2.9  user+sys:        2.9  wallclock:        3.7

 Total cpu seconds     user:     122.866   user+sys:     122.866
  
 Total elapsed time:    770 seconds

Job h2_scan completed on hpc-21-14.cm.cluster at Thu Apr 20 10:36:41 2023
