/groups/wag/pkozlows/miniconda3/envs/pyscf/lib/python3.11/site-packages/pyscf/dft/libxc.py:771: UserWarning: Since PySCF-2.3, B3LYP (and B3P86) are changed to the VWN-RPA variant, corresponding to the original definition by Stephens et al. (issue 1480) and the same as the B3LYP functional in Gaussian. To restore the VWN5 definition, you can put the setting "B3LYP_WITH_VWN5 = True" in pyscf_conf.py
  warnings.warn('Since PySCF-2.3, B3LYP (and B3P86) are changed to the VWN-RPA variant, '
/central/home/pkozlows/ch121b/gan/dft/g0w0/pbe/szv/333/2/sz3g.py:8: UserWarning: Use ase.build.bulk() instead
  ase_cell = bulk('GaN', 'wurtzite', a=3.19, c=5.19)
#INFO: **** input file is /central/home/pkozlows/ch121b/gan/dft/g0w0/pbe/szv/333/2/sz3g.py ****
import os
import numpy as np
import pyscf.pbc.tools.pyscf_ase as pyscf_ase
from ase.lattice import bulk
from pyscf.pbc import gto, scf, dft
from pyscf.pbc.gw import krgw_ac

ase_cell = bulk('GaN', 'wurtzite', a=3.19, c=5.19)

cell = gto.Cell()
cell.atom = pyscf_ase.ase_atoms_to_pyscf(ase_cell)
cell.a = np.array(ase_cell.cell)
cell.exp_to_discard = 0.1

cell.basis = 'gth-szv'
cell.pseudo = 'gth-pade'
cell.verbose = 5
cell.rcut = 93
cell.build()

kpts = cell.make_kpts([3,3,3])
kmf = dft.KRKS(cell).density_fit()
kmf.kpts = kpts
kmf.xc = 'pbe'
kmf.kernel()

# Default is AC frequency integration
mygw = krgw_ac.KRGWAC(kmf)
mygw.kernel()

# # Extracting HOMO and LUMO energies
nocc = cell.nelectron // 2  # Number of occupied orbitals

au2ev = 27.211

dft_homo = max(kmf.mo_energy[0][:nocc])
dft_lumo = min(kmf.mo_energy[0][nocc:])
dft_gap = dft_lumo - dft_homo
print("DFT HOMO energy:", dft_lumo*au2ev)
print("DFT LUMO energy:", dft_homo*au2ev)
print("DFT Band gap at Gamma point [eV]:", dft_gap*au2ev)

gw_homo = max(mygw.mo_energy[0][:nocc])
gw_lumo = min(mygw.mo_energy[0][nocc:])
gw_gap = gw_lumo - gw_homo
print("GW HOMO energy:", gw_lumo*au2ev)
print("GW LUMO energy:", gw_homo*au2ev)
print("GW Band gap at Gamma point [eV]:", gw_gap*au2ev)
#INFO: ******************** input file end ********************


System: uname_result(system='Linux', node='hpc-90-05.cm.cluster', release='3.10.0-1160.53.1.el7.x86_64', version='#1 SMP Fri Jan 14 13:59:45 UTC 2022', machine='x86_64')  Threads 10
Python 3.11.5 (main, Sep 11 2023, 13:54:46) [GCC 11.2.0]
numpy 1.26.0  scipy 1.11.3
Date: Tue Nov 28 19:52:18 2023
PySCF version 2.4.0
PySCF path  /groups/wag/pkozlows/miniconda3/envs/pyscf/lib/python3.11/site-packages/pyscf

[ENV] PYSCF_CONFIG_FILE /home/pkozlows
[CONFIG] conf_file /home/pkozlows/.pyscf_conf.py
[INPUT] verbose = 5
[INPUT] max_memory = 134935 
[INPUT] num. atoms = 4
[INPUT] num. electrons = 36
[INPUT] charge = 0
[INPUT] spin (= nelec alpha-beta = 2S) = 0
[INPUT] symmetry False subgroup None
[INPUT] Mole.unit = angstrom
[INPUT] Symbol           X                Y                Z      unit          X                Y                Z       unit  Magmom
[INPUT]  1 Ga     0.000000000000   0.000000000000   0.000000000000 AA    0.000000000000   0.000000000000   0.000000000000 Bohr   0.0
[INPUT]  2 N     -0.000000000000   1.841747358715   0.643929030186 AA   -0.000000000000   3.480398098612   1.216849510709 Bohr   0.0
[INPUT]  3 Ga    -0.000000000000   1.841747358715   2.595000000000 AA   -0.000000000000   3.480398098612   4.903839293246 Bohr   0.0
[INPUT]  4 N      0.000000000000   0.000000000000   3.238929030186 AA    0.000000000000   0.000000000000   6.120688803955 Bohr   0.0
[INPUT] ---------------- BASIS SET ---------------- 
[INPUT] l, kappa, [nprim/nctr], expnt,             c_1 c_2 ...
[INPUT] Ga
[INPUT] 0    0    [6    /1   ]  7.06665397037     0.00403882881
                                3.42836918        -0.04992601521
                                1.43006411438     0.270487560795
                                0.571610928613    0.114461485481
                                0.232196966975    -0.765662388169
                                0.076561670688    -0.4118900947
[INPUT] 1    0    [6    /1   ]  7.06665397037     0.000167446202
                                3.42836918        0.003362568505
                                1.43006411438     0.130532105798
                                0.571610928613    -0.096032824634
                                0.232196966975    -0.807329497232
                                0.076561670688    -0.419386452377
[INPUT] 2    0    [6    /1   ]  7.06665397037     -0.311164169605
                                3.42836918        -0.386388805667
                                1.43006411438     -0.341437057173
                                0.571610928613    -0.20460821239
                                0.232196966975    -0.056129936831
                                0.076561670688    -0.001205250841
[INPUT] N
[INPUT] 0    0    [4    /1   ]  6.1526903413      0.1506300537
                                1.823633228       -0.0360100734
                                0.567662887       -0.6942023212
                                0.1628222852      -0.3878929987
[INPUT] 1    0    [4    /1   ]  6.1526903413      -0.0950603476
                                1.823633228       -0.2918864295
                                0.567662887       -0.473905005
                                0.1628222852      -0.389341867

Ewald components = 6.77773183084737, -128.779455527716, 5.42224205397643
nuclear repulsion = -116.579481642892
number of shells = 10
number of NR pGTOs = 140
number of NR cGTOs = 26
basis = gth-szv
ecp = {}
CPU time:         1.24
Discarded 6 diffused primitive functions, 0 contracted functions
lattice vectors  a1 [6.028226337, 0.000000000, 0.000000000]
                 a2 [-3.014113169, 5.220597148, 0.000000000]
                 a3 [0.000000000, 0.000000000, 9.807678586]
dimension = 3
low_dim_ft_type = None
Cell volume = 308.657
exp_to_discard = 0.1
rcut = 93 (nimgs = [18 18 10])
lattice sum = 20447 cells
precision = 1e-08
pseudo = gth-pade
ke_cutoff = 887.7119060369721
    = [ 83  83 133] mesh (916237 PWs)


******** <class 'pyscf.pbc.dft.krks.KRKS'> ********
method = KRKS
initial guess = minao
damping factor = 0
level_shift factor = 0
DIIS = <class 'pyscf.scf.diis.CDIIS'>
diis_start_cycle = 1
diis_space = 8
SCF conv_tol = 1e-07
SCF conv_tol_grad = None
SCF max_cycles = 50
direct_scf = True
direct_scf_tol = 1e-13
chkfile to save SCF result = /tmp/tmpel874zow
max_memory 134935 MB (current use 102 MB)


******** PBC SCF flags ********
N kpts = 27
kpts = [[0.         0.         0.        ]
 [0.         0.         0.21354647]
 [0.         0.         0.42709293]
 [0.         0.40117922 0.        ]
 [0.         0.40117922 0.21354647]
 [0.         0.40117922 0.42709293]
 [0.         0.80235844 0.        ]
 [0.         0.80235844 0.21354647]
 [0.         0.80235844 0.42709293]
 [0.3474314  0.20058961 0.        ]
 [0.3474314  0.20058961 0.21354647]
 [0.3474314  0.20058961 0.42709293]
 [0.3474314  0.60176883 0.        ]
 [0.3474314  0.60176883 0.21354647]
 [0.3474314  0.60176883 0.42709293]
 [0.3474314  1.00294806 0.        ]
 [0.3474314  1.00294806 0.21354647]
 [0.3474314  1.00294806 0.42709293]
 [0.6948628  0.40117922 0.        ]
 [0.6948628  0.40117922 0.21354647]
 [0.6948628  0.40117922 0.42709293]
 [0.6948628  0.80235844 0.        ]
 [0.6948628  0.80235844 0.21354647]
 [0.6948628  0.80235844 0.42709293]
 [0.6948628  1.20353767 0.        ]
 [0.6948628  1.20353767 0.21354647]
 [0.6948628  1.20353767 0.42709293]]
Exchange divergence treatment (exxdiv) = ewald
Ewald components = 2.23368679724563e-09, -0.129121640870431, 0.0670244764868704
    madelung (= occupied orbital energy shift) = 0.12419432429974722
    Total energy shift due to Ewald probe charge = -1/2 * Nelec*madelung = -2.2354978374
DF object = <pyscf.pbc.df.df.GDF object at 0x7fd8db9889d0>
XC functionals = pbe
small_rho_cutoff = 1e-07
radial grids: 
    Treutler-Ahlrichs [JCP 102, 346 (1995); DOI:10.1063/1.469408] (M4) radial grids
    
becke partition: Becke, JCP 88, 2547 (1988); DOI:10.1063/1.454033
pruning grids: <function nwchem_prune at 0x7fd8dc4b45e0>
grids dens level: 3
symmetrized grids: False
atomic radii adjust function: <function treutler_atomic_radii_adjust at 0x7fd8dc4b4ae0>
Set gradient conv threshold to 0.000316228
kmesh for bvk-cell = [3 3 3]


******** <class 'pyscf.pbc.df.rsdf_builder._RSNucBuilder'> ********
mesh = [ 9  9 15] (1215 PWs)
ke_cutoff = 8.691017482676003
omega = 0.37474577310699175
exclude_d_aux = False
exclude_dd_block = True
j2c_eig_always = False
has_long_range = True
Set _RSNucBuilder.direct_scf_tol to 7.81e-15
rs_cell.nbas 10 nao 26
No. smooth_bas in rs_cell 0
sup-mol nbas = 2916 cGTO = 7536 pGTO = 35103
sup-mol-ft nbas = 2760 cGTO = 7110 pGTO = 33159
    CPU time for int3c kernel initialization      0.63 sec, wall time      0.06 sec
Set ft_ao cutoff to 4.30028e-11
kmesh for bvk-cell = [3 3 3]
sup-mol nbas = 1997 cGTO = 5189 pGTO = 24095
    CPU time for int3c kernel initialization      0.21 sec, wall time      0.02 sec
    CPU time for int3c kernel initialization      0.22 sec, wall time      0.02 sec
    CPU time for get_pp     13.27 sec, wall time      1.33 sec
atom Ga rad-grids = 90, ang-grids = [ 50  50  50  50  50  50  50  50  50  50  50  50  50  50  50  50  50  50
  50  50  50  50  50  50  50  50  50  50  50  86  86  86  86  86  86  86
  86  86  86  86  86  86  86  86  86 350 350 350 350 350 350 350 350 350
 350 350 434 434 434 434 434 434 434 434 434 434 434 434 434 434 434 434
 434 434 434 434 434 350 350 350 350 350 350 350 350 350 350 350 350 350]
atom N rad-grids = 75, ang-grids = [ 50  50  50  50  50  50  50  50  50  50  50  50  50  50  50  50  50  50
  50  50  50  50  50  86  86  86  86  86  86  86  86  86 266 266 266 266
 266 266 266 302 302 302 302 302 302 302 302 302 302 302 302 302 302 302
 302 302 302 302 266 266 266 266 266 266 266 266 266 266 266 266 266 266
 266 266 266]
tot grids = 69179
cell vol = 308.656876  sum(weights) = 308.656992
Drop grids 20233
    CPU time for setting up grids     32.60 sec, wall time      3.30 sec
nelec by numeric integration = 36.00009994800753
    CPU time for vxc     62.02 sec, wall time      6.32 sec


******** <class 'pyscf.pbc.df.df.GDF'> ********
auxbasis = None
exp_to_discard = 0.1
_cderi_to_save = /tmp/tmpg7r_9gr6
len(kpts) = 27
Even tempered Gaussians are generated as DF auxbasis for  Ga N
  ETB auxbasis for Ga  [[0, [7.4303029432, 1]], [0, [3.7151514716, 1]], [0, [1.8575757358, 1]], [0, [0.9287878679, 1]], [0, [0.46439393395, 1]], [1, [7.4303029432, 1]], [1, [3.7151514716, 1]], [1, [1.8575757358, 1]], [1, [0.9287878679, 1]], [1, [0.46439393395, 1]], [2, [7.4303029432, 1]], [2, [3.7151514716, 1]], [2, [1.8575757358, 1]], [2, [0.9287878679, 1]], [2, [0.46439393395, 1]], [3, [7.4303029432, 1]], [3, [3.7151514716, 1]], [3, [1.8575757358, 1]], [3, [0.9287878679, 1]], [3, [0.46439393395, 1]], [4, [7.4303029432, 1]], [4, [3.7151514716, 1]], [4, [1.8575757358, 1]], [4, [0.9287878679, 1]], [4, [0.46439393395, 1]]]
  ETB auxbasis for N  [[0, [10.4206262528, 1]], [0, [5.2103131264, 1]], [0, [2.6051565632, 1]], [0, [1.3025782816, 1]], [0, [0.6512891408, 1]], [0, [0.3256445704, 1]], [1, [10.4206262528, 1]], [1, [5.2103131264, 1]], [1, [2.6051565632, 1]], [1, [1.3025782816, 1]], [1, [0.6512891408, 1]], [1, [0.3256445704, 1]], [2, [10.4206262528, 1]], [2, [5.2103131264, 1]], [2, [2.6051565632, 1]], [2, [1.3025782816, 1]], [2, [0.6512891408, 1]], [2, [0.3256445704, 1]]]
num shells = 86, num cGTOs = 358
Drop 0 primitive fitting functions
make aux basis, num shells = 86, num cGTOs = 358
auxcell.rcut 12.042448909537999
kmesh for bvk-cell = [3 3 3]


******** <class 'pyscf.pbc.df.rsdf_builder._RSGDFBuilder'> ********
mesh = [ 9  9 13] (1053 PWs)
ke_cutoff = 7.387539092974977
omega = 0.33218689797605844
exclude_d_aux = True
exclude_dd_block = True
j2c_eig_always = False
has_long_range = True
Set _RSGDFBuilder.direct_scf_tol to 7.81e-15
rs_cell.nbas 10 nao 26
No. smooth_bas in rs_cell 0
rs_cell.nbas 86 nao 358
No. smooth_bas in rs_cell 0
sup-mol nbas = 3888 cGTO = 10062 pGTO = 47007
sup-mol-ft nbas = 2760 cGTO = 7110 pGTO = 33159
    CPU time for int3c kernel initialization      0.67 sec, wall time      0.07 sec
    CPU time for pass1: real space int3c2e     76.94 sec, wall time      8.53 sec
Set ft_ao cutoff to 4.30028e-11
Set 2c2e integrals precision 1e-12, mesh [ 9  9 15]
    CPU time for int2c2e      1.32 sec, wall time      0.13 sec
    CPU time for pass2: AFT int3c2e     10.65 sec, wall time      1.07 sec
    CPU time for get_j      5.20 sec, wall time      0.54 sec
    CPU time for vj and vk     93.02 sec, wall time     10.23 sec
Ewald components = 6.77773183084737, -128.779455527716, 5.42224205397643
E1 = (-88.12809278237056-1.3698695312243167e-17j)  Ecoul = 61.46759555181955  Exc = -25.541448732787423
init E= -168.78142760623
cond(S) = [7.39940068 6.86196651 6.86196651 6.65283845 6.54972178 6.54972178
 6.65283845 6.54972178 6.54972178 6.65283845 6.54972178 6.54972178
 6.03013958 5.57180427 5.57180427 6.65283845 6.54972178 6.54972178
 6.65283845 6.54972178 6.54972178 6.65283845 6.54972178 6.54972178
 6.03013958 5.57180427 5.57180427]
    CPU time for initialize scf    176.87 sec, wall time     18.77 sec
HOMO = 0.247692785835  LUMO = 0.614747881927
     k-point                  mo_energy
   0 ( 0.000  0.000  0.000)   [-0.3052779  -0.26496845 -0.04026728 -0.04021783 -0.04020886 -0.03480489
 -0.03480111 -0.01611619 -0.01609127 -0.01228921 -0.01225745 -0.00042186
  0.05634136  0.21823405  0.21823985  0.2463625   0.24769056  0.24769279] [0.61474788 0.65252516 0.80660645 0.80660879 0.82279317 0.84909492
 0.84911101 0.8634846 ]
   1 ( 0.000  0.000  0.333)   [-0.2958917  -0.27574393 -0.03923596 -0.03922782 -0.03886814 -0.0365497
 -0.03654396 -0.02572213 -0.01491664 -0.0148905  -0.01298879 -0.01295936
  0.11395675  0.19975743  0.22559645  0.22560138  0.24031944  0.24032257] [0.65977907 0.6667358  0.79045705 0.81578131 0.81578392 0.82244229
 0.8369964  0.8370081 ]
   2 ( 0.000  0.000  0.667)   [-0.2958917  -0.27574393 -0.03923596 -0.03922782 -0.03886814 -0.0365497
 -0.03654396 -0.02572213 -0.01491664 -0.0148905  -0.01298879 -0.01295936
  0.11395675  0.19975743  0.22559645  0.22560138  0.24031944  0.24032257] [0.65977907 0.6667358  0.79045705 0.81578131 0.81578392 0.82244229
 0.8369964  0.8370081 ]
   3 ( 0.000  0.333  0.000)   [-0.2784637  -0.25532558 -0.03803978 -0.0350295  -0.03180152 -0.02493921
 -0.02436796 -0.0191344  -0.01530362 -0.01459686 -0.01159862  0.00794374
  0.09361616  0.11925558  0.15335743  0.18016151  0.21672424  0.2261112 ] [0.68442157 0.72735901 0.7523784  0.80554951 0.83619383 0.8385372
 0.88497739 0.88613246]
   4 ( 0.000  0.333  0.333)   [-0.27241879 -0.26077042 -0.0376272  -0.03411349 -0.03274158 -0.02768348
 -0.02515659 -0.0231652  -0.01396098 -0.0125048  -0.01233212 -0.00331796
  0.10051661  0.12567818  0.16679886  0.1914417   0.21155302  0.21433607] [0.66570899 0.7061879  0.76991707 0.79806045 0.84872487 0.84915863
 0.8713227  0.8730627 ]
   5 ( 0.000  0.333  0.667)   [-0.27241878 -0.26077044 -0.03762743 -0.0341131  -0.03274156 -0.02768349
 -0.02515671 -0.0231654  -0.01396107 -0.01250472 -0.01233221 -0.00331766
  0.10051696  0.1256777   0.16679874  0.19144166  0.21155321  0.21433611] [0.66570926 0.70618758 0.76991773 0.79805978 0.84872461 0.84915905
 0.87132234 0.87306296]
   6 ( 0.000  0.667  0.000)   [-0.2784637  -0.25532558 -0.03803978 -0.0350295  -0.03180152 -0.02493921
 -0.02436796 -0.0191344  -0.01530362 -0.01459686 -0.01159862  0.00794374
  0.09361616  0.11925558  0.15335743  0.18016151  0.21672424  0.2261112 ] [0.68442157 0.72735901 0.7523784  0.80554951 0.83619383 0.8385372
 0.88497739 0.88613246]
   7 ( 0.000  0.667  0.333)   [-0.27241878 -0.26077044 -0.03762743 -0.0341131  -0.03274156 -0.02768349
 -0.02515671 -0.0231654  -0.01396107 -0.01250472 -0.01233221 -0.00331766
  0.10051696  0.1256777   0.16679874  0.19144166  0.21155321  0.21433611] [0.66570926 0.70618758 0.76991773 0.79805978 0.84872461 0.84915905
 0.87132234 0.87306296]
   8 ( 0.000  0.667  0.667)   [-0.27241879 -0.26077042 -0.0376272  -0.03411349 -0.03274158 -0.02768348
 -0.02515659 -0.0231652  -0.01396098 -0.0125048  -0.01233212 -0.00331796
  0.10051661  0.12567818  0.16679886  0.1914417   0.21155302  0.21433607] [0.66570899 0.7061879  0.76991707 0.79806045 0.84872487 0.84915863
 0.8713227  0.8730627 ]
   9 ( 0.333  0.000  0.000)   [-0.27846501 -0.25532903 -0.03805877 -0.03501479 -0.03180536 -0.0249336
 -0.02435995 -0.01914676 -0.01531504 -0.01458665 -0.01157771  0.00793519
  0.09361544  0.11926473  0.153364    0.18016717  0.21671843  0.22611579] [0.68440469 0.7273326  0.75236745 0.80555236 0.83619692 0.83853569
 0.88498626 0.88614049]
  10 ( 0.333  0.000  0.333)   [-0.27242054 -0.26077329 -0.03764407 -0.03412152 -0.0327281  -0.02767418
 -0.02515243 -0.02316924 -0.01394926 -0.01248831 -0.01234205 -0.00332883
  0.10052034  0.12568004  0.16680355  0.19144717  0.2115509   0.21434105] [0.66569239 0.70616386 0.76990878 0.7980562  0.84872926 0.84916214
 0.87132605 0.87307062]
  11 ( 0.333  0.000  0.667)   [-0.27242057 -0.26077326 -0.03764402 -0.0341215  -0.03272806 -0.02767424
 -0.02515261 -0.02316911 -0.01394926 -0.01248828 -0.01234226 -0.00332861
  0.10051972  0.1256807   0.16680352  0.19144718  0.21155093  0.21434103] [0.66569133 0.70616476 0.76990892 0.79805645 0.84872942 0.84916177
 0.87132612 0.87307046]
  12 ( 0.333  0.333  0.000)   [-0.25734979 -0.25734755 -0.0384162  -0.02751937 -0.02750119 -0.01933727
 -0.0170827  -0.01707638 -0.01498706 -0.01477506  0.00489865  0.00491209
  0.10416781  0.109175    0.10917666  0.17108158  0.17109198  0.18012834] [0.70891673 0.79030318 0.79030501 0.81965228 0.81966272 0.82339737
 0.87732414 0.87734399]
  13 ( 0.333  0.333  0.333)   [-0.25661429 -0.25661316 -0.03444656 -0.0304068  -0.03039883 -0.02474383
 -0.01765267 -0.01765004 -0.01562982 -0.01527122  0.0067569   0.00676323
  0.09320573  0.09320641  0.12265021  0.16001466  0.19591362  0.19591762] [0.73246575 0.73246737 0.74043727 0.79739662 0.83011937 0.83012148
 0.90597549 0.90598011]
  14 ( 0.333  0.333  0.667)   [-0.2566143  -0.25661315 -0.03444655 -0.03040686 -0.0303988  -0.02474383
 -0.01765271 -0.01764999 -0.01562981 -0.01527123  0.00675692  0.00676323
  0.09320577  0.09320636  0.12265021  0.16001466  0.19591358  0.19591767] [0.73246565 0.73246749 0.74043728 0.79739661 0.83011942 0.83012141
 0.90597502 0.90598058]
  15 ( 0.333  0.667  0.000)   [-0.27846494 -0.25532899 -0.03805871 -0.03501497 -0.03180528 -0.02493373
 -0.02435994 -0.01914669 -0.01531496 -0.01458668 -0.0115778   0.00793528
  0.09361583  0.11926428  0.15336398  0.18016688  0.21671837  0.22611571] [0.6844042  0.72733263 0.75236733 0.80555248 0.83619649 0.8385361
 0.88498578 0.88614063]
  16 ( 0.333  0.667  0.333)   [-0.2724205  -0.26077321 -0.03764393 -0.03412142 -0.03272825 -0.02767437
 -0.02515256 -0.02316911 -0.0139493  -0.01248837 -0.01234214 -0.00332854
  0.10051975  0.12568058  0.16680355  0.19144695  0.2115509   0.21434088] [0.66569095 0.70616456 0.76990885 0.79805655 0.84872899 0.84916237
 0.87132616 0.87306997]
  17 ( 0.333  0.667  0.667)   [-0.27242048 -0.26077324 -0.03764401 -0.03412141 -0.03272827 -0.02767435
 -0.02515243 -0.02316914 -0.01394932 -0.01248836 -0.01234204 -0.00332873
  0.10052034  0.12568007  0.16680337  0.19144692  0.21155098  0.21434092] [0.66569215 0.70616353 0.76990902 0.79805615 0.84872881 0.84916208
 0.87132655 0.87307016]
  18 ( 0.667  0.000  0.000)   [-0.27846501 -0.25532903 -0.03805877 -0.03501479 -0.03180536 -0.0249336
 -0.02435995 -0.01914676 -0.01531504 -0.01458665 -0.01157771  0.00793519
  0.09361544  0.11926473  0.153364    0.18016717  0.21671843  0.22611579] [0.68440469 0.7273326  0.75236745 0.80555236 0.83619692 0.83853569
 0.88498626 0.88614049]
  19 ( 0.667  0.000  0.333)   [-0.27242057 -0.26077326 -0.03764402 -0.0341215  -0.03272806 -0.02767424
 -0.02515261 -0.02316911 -0.01394926 -0.01248828 -0.01234226 -0.00332861
  0.10051972  0.1256807   0.16680352  0.19144718  0.21155093  0.21434103] [0.66569133 0.70616476 0.76990892 0.79805645 0.84872942 0.84916177
 0.87132612 0.87307046]
  20 ( 0.667  0.000  0.667)   [-0.27242054 -0.26077329 -0.03764407 -0.03412152 -0.0327281  -0.02767418
 -0.02515243 -0.02316924 -0.01394926 -0.01248831 -0.01234205 -0.00332883
  0.10052034  0.12568004  0.16680355  0.19144717  0.2115509   0.21434105] [0.66569239 0.70616386 0.76990878 0.7980562  0.84872926 0.84916214
 0.87132605 0.87307062]
  21 ( 0.667  0.333  0.000)   [-0.27846494 -0.25532899 -0.03805871 -0.03501497 -0.03180528 -0.02493373
 -0.02435994 -0.01914669 -0.01531496 -0.01458668 -0.0115778   0.00793528
  0.09361583  0.11926428  0.15336398  0.18016688  0.21671837  0.22611571] [0.6844042  0.72733263 0.75236733 0.80555248 0.83619649 0.8385361
 0.88498578 0.88614063]
  22 ( 0.667  0.333  0.333)   [-0.27242048 -0.26077324 -0.03764401 -0.03412141 -0.03272827 -0.02767435
 -0.02515243 -0.02316914 -0.01394932 -0.01248836 -0.01234204 -0.00332873
  0.10052034  0.12568007  0.16680337  0.19144692  0.21155098  0.21434092] [0.66569215 0.70616353 0.76990902 0.79805615 0.84872881 0.84916208
 0.87132655 0.87307016]
  23 ( 0.667  0.333  0.667)   [-0.2724205  -0.26077321 -0.03764393 -0.03412142 -0.03272825 -0.02767437
 -0.02515256 -0.02316911 -0.0139493  -0.01248837 -0.01234214 -0.00332854
  0.10051975  0.12568058  0.16680355  0.19144695  0.2115509   0.21434088] [0.66569095 0.70616456 0.76990885 0.79805655 0.84872899 0.84916237
 0.87132616 0.87306997]
  24 ( 0.667  0.667  0.000)   [-0.25734979 -0.25734755 -0.0384162  -0.02751937 -0.02750119 -0.01933727
 -0.0170827  -0.01707638 -0.01498706 -0.01477506  0.00489865  0.00491209
  0.10416781  0.109175    0.10917666  0.17108158  0.17109198  0.18012834] [0.70891673 0.79030318 0.79030501 0.81965228 0.81966272 0.82339737
 0.87732414 0.87734399]
  25 ( 0.667  0.667  0.333)   [-0.2566143  -0.25661315 -0.03444655 -0.03040686 -0.0303988  -0.02474383
 -0.01765271 -0.01764999 -0.01562981 -0.01527123  0.00675692  0.00676323
  0.09320577  0.09320636  0.12265021  0.16001466  0.19591358  0.19591767] [0.73246565 0.73246749 0.74043728 0.79739661 0.83011942 0.83012141
 0.90597502 0.90598058]
  26 ( 0.667  0.667  0.667)   [-0.25661429 -0.25661316 -0.03444656 -0.0304068  -0.03039883 -0.02474383
 -0.01765267 -0.01765004 -0.01562982 -0.01527122  0.0067569   0.00676323
  0.09320573  0.09320641  0.12265021  0.16001466  0.19591362  0.19591762] [0.73246575 0.73246737 0.74043727 0.79739662 0.83011937 0.83012148
 0.90597549 0.90598011]
nelec by numeric integration = 36.00006284182227
    CPU time for vxc     11.85 sec, wall time      1.26 sec
    CPU time for get_j      4.55 sec, wall time      0.48 sec
    CPU time for vj and vk      4.55 sec, wall time      0.48 sec
Ewald components = 6.77773183084737, -128.779455527716, 5.42224205397643
E1 = (-87.86319550016428-2.5314112945735628e-17j)  Ecoul = 61.708204399228094  Exc = -26.35636096775961
cycle= 1 E= -169.090833711588  delta_E= -0.309  |g|= 5.75  |ddm|=   19
    CPU time for cycle= 1     16.82 sec, wall time      1.78 sec
HOMO = 0.607981946795  LUMO = 0.739195634573
     k-point                  mo_energy
   0 ( 0.000  0.000  0.000)   [-0.22989644 -0.22587826 -0.22575005 -0.22574377 -0.22494872 -0.22494566
 -0.22236354 -0.2223348  -0.21938219 -0.21935003 -0.09680503  0.04802877
  0.17068291  0.50585233  0.50586207  0.59833285  0.6079816   0.60798195] [0.74805774 0.78326889 0.79007808 0.79008077 0.82305533 0.92883361
 0.92884478 1.15982078]
   1 ( 0.000  0.000  0.333)   [-0.22877974 -0.22674061 -0.22584114 -0.2258344  -0.22538508 -0.22538029
 -0.22133617 -0.22130787 -0.21990095 -0.21987061 -0.07689137 -0.01670108
  0.27912857  0.46157752  0.52520947  0.52521706  0.5736676   0.57367055] [0.75513023 0.78396365 0.83135795 0.83136269 0.89808194 0.89809096
 0.92394389 1.08653937]
   2 ( 0.000  0.000  0.667)   [-0.22877974 -0.22674061 -0.22584114 -0.2258344  -0.22538508 -0.22538029
 -0.22133617 -0.22130787 -0.21990095 -0.21987061 -0.07689137 -0.01670108
  0.27912857  0.46157752  0.52520947  0.52521706  0.5736676   0.57367055] [0.75513023 0.78396365 0.83135795 0.83136269 0.89808194 0.89809096
 0.92394389 1.08653937]
   3 ( 0.000  0.333  0.000)   [-0.23112347 -0.22863511 -0.22487603 -0.22450345 -0.22339203 -0.22191884
 -0.22144544 -0.22130459 -0.22086934 -0.21908952 -0.02758609  0.09660796
  0.2181251   0.28298309  0.36312059  0.41469151  0.48499278  0.52940873] [0.77179964 0.82572361 0.8774618  0.89254333 1.00818295 1.05316031
 1.07623371 1.08081061]
   4 ( 0.000  0.333  0.333)   [-0.23037522 -0.22910388 -0.22541543 -0.22425217 -0.22358802 -0.22196506
 -0.22154678 -0.22064798 -0.22037291 -0.21976447 -0.00874822  0.0458122
  0.24608608  0.30394759  0.37073278  0.43720388  0.48876476  0.49266138] [0.73921296 0.78964897 0.91523101 0.94034493 0.97822217 1.01873198
 1.04960292 1.09672136]
   5 ( 0.000  0.333  0.667)   [-0.2303751  -0.22910414 -0.22541502 -0.22425243 -0.22358801 -0.22196496
 -0.22154675 -0.22064826 -0.22037294 -0.2197643  -0.00874821  0.04581218
  0.24608649  0.30394701  0.37073289  0.43720391  0.48876483  0.49266135] [0.73921334 0.78964851 0.91523104 0.94034479 0.97822241 1.01873211
 1.04960288 1.0967212 ]
   6 ( 0.000  0.667  0.000)   [-0.23112347 -0.22863511 -0.22487603 -0.22450345 -0.22339203 -0.22191884
 -0.22144544 -0.22130459 -0.22086934 -0.21908952 -0.02758609  0.09660796
  0.2181251   0.28298309  0.36312059  0.41469151  0.48499278  0.52940873] [0.77179964 0.82572361 0.8774618  0.89254333 1.00818295 1.05316031
 1.07623371 1.08081061]
   7 ( 0.000  0.667  0.333)   [-0.2303751  -0.22910414 -0.22541502 -0.22425243 -0.22358801 -0.22196496
 -0.22154675 -0.22064826 -0.22037294 -0.2197643  -0.00874821  0.04581218
  0.24608649  0.30394701  0.37073289  0.43720391  0.48876483  0.49266135] [0.73921334 0.78964851 0.91523104 0.94034479 0.97822241 1.01873211
 1.04960288 1.0967212 ]
   8 ( 0.000  0.667  0.667)   [-0.23037522 -0.22910388 -0.22541543 -0.22425217 -0.22358802 -0.22196506
 -0.22154678 -0.22064798 -0.22037291 -0.21976447 -0.00874822  0.0458122
  0.24608608  0.30394759  0.37073278  0.43720388  0.48876476  0.49266138] [0.73921296 0.78964897 0.91523101 0.94034493 0.97822217 1.01873198
 1.04960292 1.09672136]
   9 ( 0.333  0.000  0.000)   [-0.23114351 -0.22863556 -0.22490201 -0.22448161 -0.22339448 -0.22192038
 -0.22144229 -0.22130594 -0.22086497 -0.21906628 -0.02758696  0.09660002
  0.21812382  0.2829972   0.36312827  0.41470139  0.48498474  0.52941314] [0.7717731  0.82570602 0.87746419 0.89254648 1.00818511 1.05316459
 1.07623456 1.08080981]
  10 ( 0.333  0.000  0.333)   [-0.23039276 -0.22911283 -0.22542983 -0.22425936 -0.22356871 -0.22195587
 -0.22154954 -0.22064152 -0.2203734  -0.21974721 -0.00874963  0.04580844
  0.24608744  0.30394882  0.37074279  0.43721264  0.48876434  0.49266742] [0.73919686 0.78962222 0.91522828 0.94034813 0.97822528 1.01873603
 1.049602   1.09672071]
  11 ( 0.333  0.000  0.667)   [-0.2303927  -0.22911295 -0.22542982 -0.22425922 -0.22356861 -0.22195611
 -0.22154965 -0.22064135 -0.22037339 -0.21974723 -0.0087497   0.04580855
  0.24608693  0.3039494   0.37074292  0.43721261  0.4887642   0.49266745] [0.73919595 0.78962277 0.91522865 0.94034821 0.97822513 1.01873595
 1.04960216 1.09672058]
  12 ( 0.333  0.333  0.000)   [-0.22926195 -0.22924788 -0.22668535 -0.22255878 -0.2225536  -0.22246293
 -0.22135648 -0.22104175 -0.22102165 -0.21961311  0.07789945  0.07790342
  0.25919659  0.26343839  0.26344059  0.37900293  0.37901822  0.39062171] [0.84163003 0.9259321  0.9259514  0.99418054 0.99418638 1.064744
 1.06474618 1.08964185]
  13 ( 0.333  0.333  0.333)   [-0.22918177 -0.2291744  -0.22504651 -0.22353042 -0.22352873 -0.22238586
 -0.22157824 -0.22125937 -0.22004306 -0.22003705  0.08456479  0.08456723
  0.21988177  0.21988299  0.28431754  0.34740438  0.45139596  0.4514032 ] [0.83430402 0.83431065 0.91441843 1.00266632 1.00266871 1.03585337
 1.09177268 1.09177284]
  14 ( 0.333  0.333  0.667)   [-0.22918175 -0.22917438 -0.22504652 -0.2235305  -0.2235288  -0.22238582
 -0.22157823 -0.22125942 -0.22004299 -0.22003703  0.08456486  0.08456716
  0.21988188  0.21988287  0.28431755  0.34740438  0.45139603  0.45140313] [0.83430414 0.8343105  0.91441843 1.00266599 1.00266906 1.03585337
 1.09177263 1.09177289]
  15 ( 0.333  0.667  0.000)   [-0.23114343 -0.22863541 -0.22490194 -0.2244818  -0.22339446 -0.22192034
 -0.22144238 -0.22130584 -0.220865   -0.2190664  -0.02758697  0.09660008
  0.21812433  0.28299653  0.36312834  0.41470084  0.48498446  0.52941297] [0.77177327 0.82570592 0.87746417 0.89254621 1.00818524 1.05316439
 1.07623471 1.08080982]
  16 ( 0.333  0.667  0.333)   [-0.23039263 -0.22911279 -0.22542981 -0.22425914 -0.2235688  -0.22195619
 -0.22154962 -0.2206414  -0.2203733  -0.21974733 -0.00874971  0.04580864
  0.24608693  0.30394938  0.37074266  0.43721216  0.48876426  0.49266712] [0.73919563 0.78962303 0.91522848 0.94034802 0.97822527 1.01873571
 1.04960231 1.09672071]
  17 ( 0.333  0.667  0.667)   [-0.23039265 -0.22911275 -0.22542974 -0.22425932 -0.22356885 -0.22195603
 -0.22154947 -0.22064156 -0.22037336 -0.21974727 -0.00874961  0.04580844
  0.24608756  0.30394888  0.3707425   0.43721215  0.48876425  0.49266716] [0.73919682 0.7896221  0.91522842 0.94034785 0.9782252  1.01873586
 1.04960213 1.0967209 ]
  18 ( 0.667  0.000  0.000)   [-0.23114351 -0.22863556 -0.22490201 -0.22448161 -0.22339448 -0.22192038
 -0.22144229 -0.22130594 -0.22086497 -0.21906628 -0.02758696  0.09660002
  0.21812382  0.2829972   0.36312827  0.41470139  0.48498474  0.52941314] [0.7717731  0.82570602 0.87746419 0.89254648 1.00818511 1.05316459
 1.07623456 1.08080981]
  19 ( 0.667  0.000  0.333)   [-0.2303927  -0.22911295 -0.22542982 -0.22425922 -0.22356861 -0.22195611
 -0.22154965 -0.22064135 -0.22037339 -0.21974723 -0.0087497   0.04580855
  0.24608693  0.3039494   0.37074292  0.43721261  0.4887642   0.49266745] [0.73919595 0.78962277 0.91522865 0.94034821 0.97822513 1.01873595
 1.04960216 1.09672058]
  20 ( 0.667  0.000  0.667)   [-0.23039276 -0.22911283 -0.22542983 -0.22425936 -0.22356871 -0.22195587
 -0.22154954 -0.22064152 -0.2203734  -0.21974721 -0.00874963  0.04580844
  0.24608744  0.30394882  0.37074279  0.43721264  0.48876434  0.49266742] [0.73919686 0.78962222 0.91522828 0.94034813 0.97822528 1.01873603
 1.049602   1.09672071]
  21 ( 0.667  0.333  0.000)   [-0.23114343 -0.22863541 -0.22490194 -0.2244818  -0.22339446 -0.22192034
 -0.22144238 -0.22130584 -0.220865   -0.2190664  -0.02758697  0.09660008
  0.21812433  0.28299653  0.36312834  0.41470084  0.48498446  0.52941297] [0.77177327 0.82570592 0.87746417 0.89254621 1.00818524 1.05316439
 1.07623471 1.08080982]
  22 ( 0.667  0.333  0.333)   [-0.23039265 -0.22911275 -0.22542974 -0.22425932 -0.22356885 -0.22195603
 -0.22154947 -0.22064156 -0.22037336 -0.21974727 -0.00874961  0.04580844
  0.24608756  0.30394888  0.3707425   0.43721215  0.48876425  0.49266716] [0.73919682 0.7896221  0.91522842 0.94034785 0.9782252  1.01873586
 1.04960213 1.0967209 ]
  23 ( 0.667  0.333  0.667)   [-0.23039263 -0.22911279 -0.22542981 -0.22425914 -0.2235688  -0.22195619
 -0.22154962 -0.2206414  -0.2203733  -0.21974733 -0.00874971  0.04580864
  0.24608693  0.30394938  0.37074266  0.43721216  0.48876426  0.49266712] [0.73919563 0.78962303 0.91522848 0.94034802 0.97822527 1.01873571
 1.04960231 1.09672071]
  24 ( 0.667  0.667  0.000)   [-0.22926195 -0.22924788 -0.22668535 -0.22255878 -0.2225536  -0.22246293
 -0.22135648 -0.22104175 -0.22102165 -0.21961311  0.07789945  0.07790342
  0.25919659  0.26343839  0.26344059  0.37900293  0.37901822  0.39062171] [0.84163003 0.9259321  0.9259514  0.99418054 0.99418638 1.064744
 1.06474618 1.08964185]
  25 ( 0.667  0.667  0.333)   [-0.22918175 -0.22917438 -0.22504652 -0.2235305  -0.2235288  -0.22238582
 -0.22157823 -0.22125942 -0.22004299 -0.22003703  0.08456486  0.08456716
  0.21988188  0.21988287  0.28431755  0.34740438  0.45139603  0.45140313] [0.83430414 0.8343105  0.91441843 1.00266599 1.00266906 1.03585337
 1.09177263 1.09177289]
  26 ( 0.667  0.667  0.667)   [-0.22918177 -0.2291744  -0.22504651 -0.22353042 -0.22352873 -0.22238586
 -0.22157824 -0.22125937 -0.22004306 -0.22003705  0.08456479  0.08456723
  0.21988177  0.21988299  0.28431754  0.34740438  0.45139596  0.4514032 ] [0.83430402 0.83431065 0.91441843 1.00266632 1.00266871 1.03585337
 1.09177268 1.09177284]
nelec by numeric integration = 36.000190503156354
    CPU time for vxc     11.88 sec, wall time      1.27 sec
    CPU time for get_j      4.48 sec, wall time      0.47 sec
    CPU time for vj and vk      4.48 sec, wall time      0.47 sec
Ewald components = 6.77773183084737, -128.779455527716, 5.42224205397643
E1 = (-87.60763314579444-4.11193712824132e-18j)  Ecoul = 60.86400026678328  Exc = -25.162519828783513
cycle= 2 E= -168.485634350687  delta_E= 0.605  |g|= 9.41  |ddm|= 18.9
    CPU time for cycle= 2     16.82 sec, wall time      1.79 sec
HOMO = 0.410147580157  LUMO = 0.674539343123
     k-point                  mo_energy
   0 ( 0.000  0.000  0.000)   [-0.19559924 -0.17302661 -0.13591474 -0.13542201 -0.13541272 -0.13331224
 -0.13330865 -0.12708356 -0.12705834 -0.12375621 -0.12372492 -0.05787934
  0.12099089  0.36134806  0.36135484  0.40751953  0.4101469   0.41014758] [0.67453934 0.6795449  0.78962683 0.78962759 0.8095182  0.86339286
 0.86340756 0.9800063 ]
   1 ( 0.000  0.000  0.333)   [-0.18572274 -0.17459009 -0.13517283 -0.13516449 -0.13410347 -0.13409797
 -0.12988112 -0.12600573 -0.12597949 -0.12435703 -0.12432784 -0.09566964
  0.19306858  0.32387393  0.37262715  0.37263234  0.39693857  0.39694068] [0.69262594 0.7197082  0.80724985 0.80725421 0.81219659 0.84400832
 0.84401972 0.92164119]
   2 ( 0.000  0.000  0.667)   [-0.18572274 -0.17459009 -0.13517283 -0.13516449 -0.13410347 -0.13409797
 -0.12988112 -0.12600573 -0.12597949 -0.12435703 -0.12432784 -0.09566964
  0.19306858  0.32387393  0.37262715  0.37263234  0.39693857  0.39694068] [0.69262594 0.7197082  0.80724985 0.80725421 0.81219659 0.84400832
 0.84401972 0.92164119]
   3 ( 0.000  0.333  0.000)   [-0.17569218 -0.17056726 -0.1336052  -0.13303877 -0.13016835 -0.12815385
 -0.12811135 -0.12690827 -0.12553974 -0.12325167 -0.10161976 -0.03205187
  0.16411386  0.20721022  0.25172593  0.30362379  0.35361842  0.37449029] [0.71610642 0.75591665 0.79684514 0.84160606 0.88592039 0.91820899
 0.93648395 0.93654036]
   4 ( 0.000  0.333  0.333)   [-0.17249157 -0.17019006 -0.13386977 -0.13201484 -0.13175273 -0.12923815
 -0.12777509 -0.12639594 -0.12511402 -0.12399774 -0.09083594 -0.05770793
  0.17123323  0.20980368  0.27435196  0.31920561  0.35031998  0.35427882] [0.68728002 0.73381763 0.82249877 0.8636856  0.86754948 0.9063801
 0.91464506 0.9451596 ]
   5 ( 0.000  0.333  0.667)   [-0.17249163 -0.17019002 -0.13386947 -0.132015   -0.13175272 -0.12923812
 -0.12777512 -0.126396   -0.12511418 -0.12399761 -0.09083607 -0.05770785
  0.17123372  0.20980314  0.27435179  0.31920559  0.35032017  0.35427885] [0.68728052 0.73381712 0.82249872 0.8636857  0.86754927 0.90638038
 0.91464527 0.94515927]
   6 ( 0.000  0.667  0.000)   [-0.17569218 -0.17056726 -0.1336052  -0.13303877 -0.13016835 -0.12815385
 -0.12811135 -0.12690827 -0.12553974 -0.12325167 -0.10161976 -0.03205187
  0.16411386  0.20721022  0.25172593  0.30362379  0.35361842  0.37449029] [0.71610642 0.75591665 0.79684514 0.84160606 0.88592039 0.91820899
 0.93648395 0.93654036]
   7 ( 0.000  0.667  0.333)   [-0.17249163 -0.17019002 -0.13386947 -0.132015   -0.13175272 -0.12923812
 -0.12777512 -0.126396   -0.12511418 -0.12399761 -0.09083607 -0.05770785
  0.17123372  0.20980314  0.27435179  0.31920559  0.35032017  0.35427885] [0.68728052 0.73381712 0.82249872 0.8636857  0.86754927 0.90638038
 0.91464527 0.94515927]
   8 ( 0.000  0.667  0.667)   [-0.17249157 -0.17019006 -0.13386977 -0.13201484 -0.13175273 -0.12923815
 -0.12777509 -0.12639594 -0.12511402 -0.12399774 -0.09083594 -0.05770793
  0.17123323  0.20980368  0.27435196  0.31920561  0.35031998  0.35427882] [0.68728002 0.73381763 0.82249877 0.8636856  0.86754948 0.9063801
 0.91464506 0.9451596 ]
   9 ( 0.333  0.000  0.000)   [-0.17569312 -0.17057845 -0.1336293  -0.13302033 -0.13016469 -0.12815231
 -0.12810611 -0.12692586 -0.12553247 -0.12323073 -0.10162047 -0.03205985
  0.1641137   0.20722231  0.25173666  0.30363117  0.35361172  0.37449377] [0.71608206 0.75588888 0.79684171 0.84160983 0.88592378 0.91821221
 0.93648558 0.93654841]
  10 ( 0.333  0.000  0.333)   [-0.17249547 -0.17019961 -0.13388633 -0.13202038 -0.13173617 -0.12922824
 -0.12778202 -0.12639942 -0.12510464 -0.12398149 -0.09083966 -0.05771435
  0.17123771  0.20980743  0.27436051  0.3192121   0.35031938  0.3542834 ] [0.68726156 0.73378696 0.82249358 0.86368693 0.86755397 0.90638334
 0.91465151 0.94516027]
  11 ( 0.333  0.000  0.667)   [-0.17249554 -0.17019955 -0.13388629 -0.13202028 -0.13173609 -0.12922835
 -0.127782   -0.12639954 -0.12510456 -0.12398151 -0.09083978 -0.05771421
  0.17123709  0.20980806  0.27436063  0.3192121   0.35031933  0.35428339] [0.68726047 0.73378771 0.82249402 0.86368678 0.86755411 0.90638333
 0.91465138 0.94516019]
  12 ( 0.333  0.333  0.000)   [-0.17071538 -0.17070622 -0.13552696 -0.12844514 -0.12842579 -0.12770298
 -0.12741524 -0.1274097  -0.12593084 -0.12445154 -0.0381708  -0.03816316
  0.18884613  0.18884787  0.19098081  0.28173232  0.28174461  0.29233066] [0.74321684 0.86224626 0.86224976 0.88052336 0.88052372 0.91253207
 0.91254196 0.9221268 ]
  13 ( 0.333  0.333  0.333)   [-0.16953115 -0.16952629 -0.1331813  -0.13087435 -0.13086905 -0.12858499
 -0.12616073 -0.12612254 -0.1256771  -0.1256753  -0.03748882 -0.03748484
  0.16205696  0.16205769  0.21179166  0.26119245  0.32744403  0.32744928] [0.76454213 0.76454367 0.79446696 0.88270642 0.90802544 0.90803107
 0.94748044 0.94748085]
  14 ( 0.333  0.333  0.667)   [-0.16953116 -0.16952627 -0.1331813  -0.13087441 -0.13086906 -0.12858497
 -0.12616072 -0.12612255 -0.12567704 -0.1256753  -0.03748877 -0.03748489
  0.16205703  0.16205762  0.21179167  0.26119245  0.32744402  0.3274493 ] [0.76454227 0.76454354 0.79446697 0.88270642 0.90802518 0.90803132
 0.9474804  0.94748089]
  15 ( 0.333  0.667  0.000)   [-0.175693   -0.17057839 -0.13362925 -0.13302053 -0.13016466 -0.12815227
 -0.12810622 -0.12692573 -0.12553251 -0.12323083 -0.10162045 -0.03205977
  0.16411415  0.20722172  0.25173665  0.30363075  0.3536116   0.37449367] [0.71608182 0.75588886 0.79684175 0.84160945 0.8859239  0.91821244
 0.93648566 0.93654802]
  16 ( 0.333  0.667  0.333)   [-0.17249542 -0.17019948 -0.13388628 -0.13202017 -0.13173629 -0.12922847
 -0.127782   -0.12639942 -0.1251046  -0.12398159 -0.09083978 -0.05771412
  0.17123708  0.20980797  0.27436056  0.31921177  0.35031931  0.35428317] [0.68726009 0.73378781 0.82249393 0.86368682 0.86755376 0.9063837
 0.91465098 0.94516031]
  17 ( 0.333  0.667  0.667)   [-0.17249536 -0.17019953 -0.13388624 -0.13202036 -0.13173633 -0.1292284
 -0.1277819  -0.1263994  -0.12510468 -0.12398155 -0.0908396  -0.05771432
  0.17123776  0.20980741  0.27436027  0.31921173  0.35031943  0.35428322] [0.68726144 0.73378674 0.8224937  0.8636868  0.86755357 0.90638352
 0.91465117 0.94516056]
  18 ( 0.667  0.000  0.000)   [-0.17569312 -0.17057845 -0.1336293  -0.13302033 -0.13016469 -0.12815231
 -0.12810611 -0.12692586 -0.12553247 -0.12323073 -0.10162047 -0.03205985
  0.1641137   0.20722231  0.25173666  0.30363117  0.35361172  0.37449377] [0.71608206 0.75588888 0.79684171 0.84160983 0.88592378 0.91821221
 0.93648558 0.93654841]
  19 ( 0.667  0.000  0.333)   [-0.17249554 -0.17019955 -0.13388629 -0.13202028 -0.13173609 -0.12922835
 -0.127782   -0.12639954 -0.12510456 -0.12398151 -0.09083978 -0.05771421
  0.17123709  0.20980806  0.27436063  0.3192121   0.35031933  0.35428339] [0.68726047 0.73378771 0.82249402 0.86368678 0.86755411 0.90638333
 0.91465138 0.94516019]
  20 ( 0.667  0.000  0.667)   [-0.17249547 -0.17019961 -0.13388633 -0.13202038 -0.13173617 -0.12922824
 -0.12778202 -0.12639942 -0.12510464 -0.12398149 -0.09083966 -0.05771435
  0.17123771  0.20980743  0.27436051  0.3192121   0.35031938  0.3542834 ] [0.68726156 0.73378696 0.82249358 0.86368693 0.86755397 0.90638334
 0.91465151 0.94516027]
  21 ( 0.667  0.333  0.000)   [-0.175693   -0.17057839 -0.13362925 -0.13302053 -0.13016466 -0.12815227
 -0.12810622 -0.12692573 -0.12553251 -0.12323083 -0.10162045 -0.03205977
  0.16411415  0.20722172  0.25173665  0.30363075  0.3536116   0.37449367] [0.71608182 0.75588886 0.79684175 0.84160945 0.8859239  0.91821244
 0.93648566 0.93654802]
  22 ( 0.667  0.333  0.333)   [-0.17249536 -0.17019953 -0.13388624 -0.13202036 -0.13173633 -0.1292284
 -0.1277819  -0.1263994  -0.12510468 -0.12398155 -0.0908396  -0.05771432
  0.17123776  0.20980741  0.27436027  0.31921173  0.35031943  0.35428322] [0.68726144 0.73378674 0.8224937  0.8636868  0.86755357 0.90638352
 0.91465117 0.94516056]
  23 ( 0.667  0.333  0.667)   [-0.17249542 -0.17019948 -0.13388628 -0.13202017 -0.13173629 -0.12922847
 -0.127782   -0.12639942 -0.1251046  -0.12398159 -0.09083978 -0.05771412
  0.17123708  0.20980797  0.27436056  0.31921177  0.35031931  0.35428317] [0.68726009 0.73378781 0.82249393 0.86368682 0.86755376 0.9063837
 0.91465098 0.94516031]
  24 ( 0.667  0.667  0.000)   [-0.17071538 -0.17070622 -0.13552696 -0.12844514 -0.12842579 -0.12770298
 -0.12741524 -0.1274097  -0.12593084 -0.12445154 -0.0381708  -0.03816316
  0.18884613  0.18884787  0.19098081  0.28173232  0.28174461  0.29233066] [0.74321684 0.86224626 0.86224976 0.88052336 0.88052372 0.91253207
 0.91254196 0.9221268 ]
  25 ( 0.667  0.667  0.333)   [-0.16953116 -0.16952627 -0.1331813  -0.13087441 -0.13086906 -0.12858497
 -0.12616072 -0.12612255 -0.12567704 -0.1256753  -0.03748877 -0.03748489
  0.16205703  0.16205762  0.21179167  0.26119245  0.32744402  0.3274493 ] [0.76454227 0.76454354 0.79446697 0.88270642 0.90802518 0.90803132
 0.9474804  0.94748089]
  26 ( 0.667  0.667  0.667)   [-0.16953115 -0.16952629 -0.1331813  -0.13087435 -0.13086905 -0.12858499
 -0.12616073 -0.12612254 -0.1256771  -0.1256753  -0.03748882 -0.03748484
  0.16205696  0.16205769  0.21179166  0.26119245  0.32744403  0.32744928] [0.76454213 0.76454367 0.79446696 0.88270642 0.90802544 0.90803107
 0.94748044 0.94748085]
nelec by numeric integration = 36.00011984481678
    CPU time for vxc     11.81 sec, wall time      1.26 sec
    CPU time for get_j      4.24 sec, wall time      0.45 sec
    CPU time for vj and vk      4.25 sec, wall time      0.45 sec
Ewald components = 6.77773183084737, -128.779455527716, 5.42224205397643
E1 = (-87.96142986971408-1.9788697429661354e-17j)  Ecoul = 60.81052298513381  Exc = -25.786267191887234
cycle= 3 E= -169.516655719359  delta_E= -1.03  |g|= 0.142  |ddm|= 11.4
    CPU time for cycle= 3     16.50 sec, wall time      1.75 sec
HOMO = 0.402901361184  LUMO = 0.667896830786
     k-point                  mo_energy
   0 ( 0.000  0.000  0.000)   [-0.20060231 -0.17702417 -0.13881638 -0.1384128  -0.13840356 -0.13630888
 -0.13630531 -0.13001218 -0.12998696 -0.12665858 -0.12662728 -0.06234197
  0.11629282  0.35487586  0.35488213  0.40018437  0.40290079  0.40290136] [0.66789683 0.67402064 0.78499965 0.78500049 0.80493856 0.85755369
 0.8575677  0.971429  ]
   1 ( 0.000  0.000  0.333)   [-0.19059323 -0.17884066 -0.13816508 -0.13815679 -0.13709838 -0.13709291
 -0.1329745  -0.12892824 -0.12890198 -0.12726669 -0.12723748 -0.09959935
  0.18777384  0.31744926  0.36600206  0.36600683  0.3899334   0.38993529] [0.68720838 0.71370041 0.80228428 0.8022877  0.80604586 0.8384438
 0.83845442 0.91358486]
   2 ( 0.000  0.000  0.667)   [-0.19059323 -0.17884066 -0.13816508 -0.13815679 -0.13709838 -0.13709291
 -0.1329745  -0.12892824 -0.12890198 -0.12726669 -0.12723748 -0.09959935
  0.18777384  0.31744926  0.36600206  0.36600683  0.3899334   0.38993529] [0.68720838 0.71370041 0.80228428 0.8022877  0.80604586 0.8384438
 0.83845442 0.91358486]
   3 ( 0.000  0.333  0.000)   [-0.18002718 -0.17441693 -0.13655036 -0.13598232 -0.13308309 -0.13110117
 -0.13107225 -0.12980149 -0.12850003 -0.12616688 -0.1055212  -0.0369883
  0.15913254  0.2022674   0.24611904  0.29785267  0.34717787  0.36783801] [0.71041442 0.75011178 0.79063285 0.83605241 0.87887159 0.91042418
 0.92937124 0.92942747]
   4 ( 0.000  0.333  0.333)   [-0.17667666 -0.17412386 -0.13681722 -0.13496801 -0.13469748 -0.13219123
 -0.13068084 -0.12931085 -0.12806674 -0.12692864 -0.09495015 -0.06231421
  0.1661736   0.20444223  0.26884807  0.3132736   0.34390262  0.3479209 ] [0.68174835 0.7281644  0.81612043 0.85691716 0.86153503 0.8992268
 0.90786594 0.93751262]
   5 ( 0.000  0.333  0.667)   [-0.17667672 -0.17412381 -0.13681689 -0.13496822 -0.13469747 -0.13219119
 -0.13068081 -0.12931094 -0.12806693 -0.12692849 -0.09495027 -0.06231414
  0.16617412  0.20444163  0.26884796  0.31327359  0.34390279  0.34792093] [0.68174883 0.72816391 0.81612053 0.8569171  0.86153482 0.89922702
 0.90786614 0.93751236]
   6 ( 0.000  0.667  0.000)   [-0.18002718 -0.17441693 -0.13655036 -0.13598232 -0.13308309 -0.13110117
 -0.13107225 -0.12980149 -0.12850003 -0.12616688 -0.1055212  -0.0369883
  0.15913254  0.2022674   0.24611904  0.29785267  0.34717787  0.36783801] [0.71041442 0.75011178 0.79063285 0.83605241 0.87887159 0.91042418
 0.92937124 0.92942747]
   7 ( 0.000  0.667  0.333)   [-0.17667672 -0.17412381 -0.13681689 -0.13496822 -0.13469747 -0.13219119
 -0.13068081 -0.12931094 -0.12806693 -0.12692849 -0.09495027 -0.06231414
  0.16617412  0.20444163  0.26884796  0.31327359  0.34390279  0.34792093] [0.68174883 0.72816391 0.81612053 0.8569171  0.86153482 0.89922702
 0.90786614 0.93751236]
   8 ( 0.000  0.667  0.667)   [-0.17667666 -0.17412386 -0.13681722 -0.13496801 -0.13469748 -0.13219123
 -0.13068084 -0.12931085 -0.12806674 -0.12692864 -0.09495015 -0.06231421
  0.1661736   0.20444223  0.26884807  0.3132736   0.34390262  0.3479209 ] [0.68174835 0.7281644  0.81612043 0.85691716 0.86153503 0.8992268
 0.90786594 0.93751262]
   9 ( 0.333  0.000  0.000)   [-0.18002815 -0.17442788 -0.1365745  -0.13596393 -0.13307915 -0.1311003
 -0.13106707 -0.12981865 -0.12849274 -0.12614588 -0.10552201 -0.03699629
  0.15913298  0.20227864  0.24612986  0.29785954  0.34717142  0.36784144] [0.71039009 0.75008406 0.79062983 0.83605513 0.87887486 0.91042719
 0.92937319 0.9294349 ]
  10 ( 0.333  0.000  0.333)   [-0.1766805  -0.17413318 -0.1368338  -0.13497356 -0.13468099 -0.1321814
 -0.13068771 -0.12931429 -0.12805734 -0.12691228 -0.09495403 -0.06232075
  0.16617832  0.20444593  0.26885647  0.31327968  0.34390207  0.34792529] [0.68172998 0.72813403 0.81611539 0.85691817 0.86153859 0.89923014
 0.90787164 0.9375136 ]
  11 ( 0.333  0.000  0.667)   [-0.17668057 -0.17413312 -0.1368338  -0.1349734  -0.13468091 -0.13218154
 -0.13068774 -0.12931439 -0.12805724 -0.12691232 -0.09495416 -0.06232061
  0.16617767  0.20444664  0.26885653  0.31327968  0.34390204  0.34792528] [0.68172889 0.72813479 0.81611569 0.85691817 0.86153873 0.8992302
 0.90787151 0.93751344]
  12 ( 0.333  0.333  0.000)   [-0.17461368 -0.17460466 -0.13846481 -0.13138446 -0.13136561 -0.13066385
 -0.13029763 -0.1302926  -0.1289015  -0.12736532 -0.04303453 -0.04302677
  0.18374522  0.18374688  0.18622482  0.27611337  0.27612544  0.28676575] [0.73688268 0.8553453  0.85534841 0.87395797 0.87395839 0.90565709
 0.90566747 0.91381799]
  13 ( 0.333  0.333  0.333)   [-0.17342016 -0.17341537 -0.13611243 -0.13381014 -0.13380484 -0.13151626
 -0.12913119 -0.12907613 -0.12856997 -0.12856816 -0.04238944 -0.0423854
  0.15719024  0.15719092  0.20690437  0.25592687  0.32132031  0.32132547] [0.75853515 0.75853676 0.78754815 0.87482635 0.90130128 0.90130688
 0.94034846 0.94034895]
  14 ( 0.333  0.333  0.667)   [-0.17342017 -0.17341536 -0.13611243 -0.1338102  -0.13380485 -0.13151624
 -0.12913118 -0.12907614 -0.12856991 -0.12856816 -0.04238939 -0.04238545
  0.15719032  0.15719084  0.20690437  0.25592687  0.3213203   0.32132548] [0.75853528 0.75853663 0.78754815 0.87482634 0.90130103 0.90130712
 0.94034841 0.94034901]
  15 ( 0.333  0.667  0.000)   [-0.18002802 -0.17442782 -0.13657445 -0.13596412 -0.13307912 -0.13110026
 -0.13106718 -0.12981851 -0.12849278 -0.12614598 -0.10552198 -0.03699622
  0.15913343  0.20227806  0.24612986  0.29785912  0.34717129  0.36784133] [0.71038984 0.75008404 0.79062987 0.83605474 0.87887499 0.91042743
 0.92937328 0.9294345 ]
  16 ( 0.333  0.667  0.333)   [-0.17668045 -0.17413304 -0.13683378 -0.13497329 -0.13468112 -0.13218165
 -0.13068774 -0.12931427 -0.12805728 -0.1269124  -0.09495415 -0.06232051
  0.16617766  0.20444655  0.26885646  0.31327934  0.34390203  0.34792506] [0.68172851 0.72813488 0.81611561 0.85691821 0.86153838 0.89923058
 0.90787111 0.93751357]
  17 ( 0.333  0.667  0.667)   [-0.17668039 -0.1741331  -0.13683371 -0.13497354 -0.13468116 -0.13218157
 -0.13068758 -0.12931428 -0.12805738 -0.12691234 -0.09495396 -0.06232072
  0.16617838  0.20444592  0.26885623  0.31327931  0.34390212  0.34792511] [0.68172985 0.72813381 0.81611552 0.85691804 0.86153818 0.89923032
 0.90787129 0.9375139 ]
  18 ( 0.667  0.000  0.000)   [-0.18002815 -0.17442788 -0.1365745  -0.13596393 -0.13307915 -0.1311003
 -0.13106707 -0.12981865 -0.12849274 -0.12614588 -0.10552201 -0.03699629
  0.15913298  0.20227864  0.24612986  0.29785954  0.34717142  0.36784144] [0.71039009 0.75008406 0.79062983 0.83605513 0.87887486 0.91042719
 0.92937319 0.9294349 ]
  19 ( 0.667  0.000  0.333)   [-0.17668057 -0.17413312 -0.1368338  -0.1349734  -0.13468091 -0.13218154
 -0.13068774 -0.12931439 -0.12805724 -0.12691232 -0.09495416 -0.06232061
  0.16617767  0.20444664  0.26885653  0.31327968  0.34390204  0.34792528] [0.68172889 0.72813479 0.81611569 0.85691817 0.86153873 0.8992302
 0.90787151 0.93751344]
  20 ( 0.667  0.000  0.667)   [-0.1766805  -0.17413318 -0.1368338  -0.13497356 -0.13468099 -0.1321814
 -0.13068771 -0.12931429 -0.12805734 -0.12691228 -0.09495403 -0.06232075
  0.16617832  0.20444593  0.26885647  0.31327968  0.34390207  0.34792529] [0.68172998 0.72813403 0.81611539 0.85691817 0.86153859 0.89923014
 0.90787164 0.9375136 ]
  21 ( 0.667  0.333  0.000)   [-0.18002802 -0.17442782 -0.13657445 -0.13596412 -0.13307912 -0.13110026
 -0.13106718 -0.12981851 -0.12849278 -0.12614598 -0.10552198 -0.03699622
  0.15913343  0.20227806  0.24612986  0.29785912  0.34717129  0.36784133] [0.71038984 0.75008404 0.79062987 0.83605474 0.87887499 0.91042743
 0.92937328 0.9294345 ]
  22 ( 0.667  0.333  0.333)   [-0.17668039 -0.1741331  -0.13683371 -0.13497354 -0.13468116 -0.13218157
 -0.13068758 -0.12931428 -0.12805738 -0.12691234 -0.09495396 -0.06232072
  0.16617838  0.20444592  0.26885623  0.31327931  0.34390212  0.34792511] [0.68172985 0.72813381 0.81611552 0.85691804 0.86153818 0.89923032
 0.90787129 0.9375139 ]
  23 ( 0.667  0.333  0.667)   [-0.17668045 -0.17413304 -0.13683378 -0.13497329 -0.13468112 -0.13218165
 -0.13068774 -0.12931427 -0.12805728 -0.1269124  -0.09495415 -0.06232051
  0.16617766  0.20444655  0.26885646  0.31327934  0.34390203  0.34792506] [0.68172851 0.72813488 0.81611561 0.85691821 0.86153838 0.89923058
 0.90787111 0.93751357]
  24 ( 0.667  0.667  0.000)   [-0.17461368 -0.17460466 -0.13846481 -0.13138446 -0.13136561 -0.13066385
 -0.13029763 -0.1302926  -0.1289015  -0.12736532 -0.04303453 -0.04302677
  0.18374522  0.18374688  0.18622482  0.27611337  0.27612544  0.28676575] [0.73688268 0.8553453  0.85534841 0.87395797 0.87395839 0.90565709
 0.90566747 0.91381799]
  25 ( 0.667  0.667  0.333)   [-0.17342017 -0.17341536 -0.13611243 -0.1338102  -0.13380485 -0.13151624
 -0.12913118 -0.12907614 -0.12856991 -0.12856816 -0.04238939 -0.04238545
  0.15719032  0.15719084  0.20690437  0.25592687  0.3213203   0.32132548] [0.75853528 0.75853663 0.78754815 0.87482634 0.90130103 0.90130712
 0.94034841 0.94034901]
  26 ( 0.667  0.667  0.667)   [-0.17342016 -0.17341537 -0.13611243 -0.13381014 -0.13380484 -0.13151626
 -0.12913119 -0.12907613 -0.12856997 -0.12856816 -0.04238944 -0.0423854
  0.15719024  0.15719092  0.20690437  0.25592687  0.32132031  0.32132547] [0.75853515 0.75853676 0.78754815 0.87482635 0.90130128 0.90130688
 0.94034846 0.94034895]
nelec by numeric integration = 36.000118662107596
    CPU time for vxc     12.51 sec, wall time      1.33 sec
    CPU time for get_j      3.89 sec, wall time      0.41 sec
    CPU time for vj and vk      3.89 sec, wall time      0.41 sec
Ewald components = 6.77773183084737, -128.779455527716, 5.42224205397643
E1 = (-87.96226209868584-1.9146207253373647e-17j)  Ecoul = 60.8225698150439  Exc = -25.797719947780738
cycle= 4 E= -169.516893874315  delta_E= -0.000238  |g|= 0.00426  |ddm|= 0.181
    CPU time for cycle= 4     16.87 sec, wall time      1.78 sec
HOMO = 0.402819778894  LUMO = 0.667889121057
     k-point                  mo_energy
   0 ( 0.000  0.000  0.000)   [-0.20064419 -0.17701379 -0.13875364 -0.1383411  -0.13833185 -0.13623406
 -0.13623048 -0.12994077 -0.12991555 -0.126589   -0.12655771 -0.06235835
  0.11629841  0.3548112   0.35481748  0.40011718  0.40281919  0.40281978] [0.66788912 0.67400271 0.78504037 0.78504123 0.80495875 0.85757285
 0.85758684 0.9714062 ]
   1 ( 0.000  0.000  0.333)   [-0.19062788 -0.17884329 -0.13809275 -0.13808445 -0.13702455 -0.13701907
 -0.13292197 -0.12885716 -0.1288309  -0.12719647 -0.12716726 -0.09958903
  0.18776032  0.31740751  0.36593413  0.36593892  0.38985716  0.38985907] [0.68719138 0.71367437 0.80231865 0.80232205 0.80606086 0.83846754
 0.83847815 0.91356913]
   2 ( 0.000  0.000  0.667)   [-0.19062788 -0.17884329 -0.13809275 -0.13808445 -0.13702455 -0.13701907
 -0.13292197 -0.12885716 -0.1288309  -0.12719647 -0.12716726 -0.09958903
  0.18776032  0.31740751  0.36593413  0.36593892  0.38985716  0.38985907] [0.68719138 0.71367437 0.80231865 0.80232205 0.80606086 0.83846754
 0.83847815 0.91356913]
   3 ( 0.000  0.333  0.000)   [-0.18003468 -0.17439874 -0.13648258 -0.13591481 -0.13301598 -0.13102832
 -0.13099717 -0.12973404 -0.12842347 -0.12609606 -0.10549026 -0.03701098
  0.15912841  0.20223634  0.24607314  0.29780331  0.34713125  0.3677688 ] [0.71041938 0.75011062 0.79065092 0.8360799  0.87884089 0.91040042
 0.92936134 0.92942589]
   4 ( 0.000  0.333  0.333)   [-0.17667593 -0.17410988 -0.13674902 -0.13489832 -0.13462869 -0.13211868
 -0.13061302 -0.12924194 -0.12799108 -0.12685577 -0.09493182 -0.06232204
  0.16615601  0.20440993  0.26881165  0.31322083  0.34384874  0.34785859] [0.68176509 0.7281693  0.81611894 0.85690756 0.86155341 0.89920443
 0.90787016 0.93749152]
   5 ( 0.000  0.333  0.667)   [-0.17667599 -0.17410983 -0.13674873 -0.13489846 -0.13462868 -0.13211865
 -0.13061305 -0.129242   -0.12799124 -0.12685564 -0.09493195 -0.06232196
  0.16615648  0.20440944  0.26881142  0.31322081  0.34384897  0.34785862] [0.6817656  0.7281688  0.81611877 0.85690777 0.86155319 0.8992048
 0.90787038 0.93749111]
   6 ( 0.000  0.667  0.000)   [-0.18003468 -0.17439874 -0.13648258 -0.13591481 -0.13301598 -0.13102832
 -0.13099717 -0.12973404 -0.12842347 -0.12609606 -0.10549026 -0.03701098
  0.15912841  0.20223634  0.24607314  0.29780331  0.34713125  0.3677688 ] [0.71041938 0.75011062 0.79065092 0.8360799  0.87884089 0.91040042
 0.92936134 0.92942589]
   7 ( 0.000  0.667  0.333)   [-0.17667599 -0.17410983 -0.13674873 -0.13489846 -0.13462868 -0.13211865
 -0.13061305 -0.129242   -0.12799124 -0.12685564 -0.09493195 -0.06232196
  0.16615648  0.20440944  0.26881142  0.31322081  0.34384897  0.34785862] [0.6817656  0.7281688  0.81611877 0.85690777 0.86155319 0.8992048
 0.90787038 0.93749111]
   8 ( 0.000  0.667  0.667)   [-0.17667593 -0.17410988 -0.13674902 -0.13489832 -0.13462869 -0.13211868
 -0.13061302 -0.12924194 -0.12799108 -0.12685577 -0.09493182 -0.06232204
  0.16615601  0.20440993  0.26881165  0.31322083  0.34384874  0.34785859] [0.68176509 0.7281693  0.81611894 0.85690756 0.86155341 0.89920443
 0.90787016 0.93749152]
   9 ( 0.333  0.000  0.000)   [-0.18003565 -0.17440968 -0.13650672 -0.13589641 -0.13301207 -0.13102744
 -0.13099198 -0.12975119 -0.12841619 -0.12607506 -0.10549105 -0.03701896
  0.15912882  0.20224756  0.24608395  0.29781018  0.34712479  0.36777224] [0.71039511 0.75008298 0.79064786 0.83608262 0.87884413 0.91040345
 0.9293634  0.92943318]
  10 ( 0.333  0.000  0.333)   [-0.17667978 -0.17411919 -0.13676564 -0.13490382 -0.13461219 -0.13210885
 -0.13061995 -0.12924534 -0.12798165 -0.12683944 -0.0949357  -0.06232855
  0.16616065  0.20441372  0.26881993  0.31322691  0.34384824  0.34786299] [0.68174677 0.72813897 0.81611365 0.85690886 0.86155696 0.89920788
 0.90787588 0.93749232]
  11 ( 0.333  0.000  0.667)   [-0.17667984 -0.17411913 -0.13676561 -0.13490373 -0.13461212 -0.13210897
 -0.13061993 -0.12924547 -0.12798158 -0.12683946 -0.09493582 -0.06232842
  0.16616005  0.2044143   0.26882011  0.31322691  0.34384816  0.34786297] [0.68174565 0.72813974 0.81611422 0.85690859 0.86155711 0.8992078
 0.90787573 0.93749232]
  12 ( 0.333  0.333  0.000)   [-0.17459804 -0.17458902 -0.13839921 -0.13131369 -0.13129481 -0.13058627
 -0.13023015 -0.13022508 -0.12882305 -0.12729602 -0.0430438  -0.04303601
  0.18371432  0.18371602  0.18619919  0.27608268  0.27609476  0.28672145] [0.73689091 0.8553539  0.85535689 0.87395858 0.87395905 0.90562232
 0.90563268 0.91379099]
  13 ( 0.333  0.333  0.333)   [-0.17340376 -0.17339897 -0.13604604 -0.13374077 -0.13373547 -0.13144459
 -0.12905297 -0.12900179 -0.12850172 -0.12849991 -0.04240043 -0.04239636
  0.15716991  0.15717074  0.20687626  0.25589025  0.32127175  0.32127693] [0.75855507 0.75855653 0.78754478 0.87480621 0.90127085 0.9012764
 0.94034403 0.94034445]
  14 ( 0.333  0.333  0.667)   [-0.17340378 -0.17339895 -0.13604604 -0.13374083 -0.13373548 -0.13144458
 -0.12905297 -0.1290018  -0.12850166 -0.1284999  -0.04240038 -0.04239641
  0.15716998  0.15717068  0.20687626  0.25589025  0.32127173  0.32127695] [0.75855521 0.75855639 0.78754479 0.8748062  0.9012706  0.90127664
 0.94034397 0.94034452]
  15 ( 0.333  0.667  0.000)   [-0.18003553 -0.17440962 -0.13650667 -0.1358966  -0.13301204 -0.1310274
 -0.1309921  -0.12975106 -0.12841623 -0.12607516 -0.10549102 -0.03701889
  0.15912927  0.20224698  0.24608394  0.29780977  0.34712466  0.36777214] [0.71039486 0.75008296 0.7906479  0.83608223 0.87884425 0.91040368
 0.92936349 0.92943279]
  16 ( 0.333  0.667  0.333)   [-0.17667972 -0.17411905 -0.13676559 -0.13490362 -0.13461232 -0.13210909
 -0.13061992 -0.12924535 -0.12798162 -0.12683954 -0.09493581 -0.06232832
  0.16616004  0.20441421  0.26882004  0.31322658  0.34384815  0.34786276] [0.68174528 0.72813983 0.81611414 0.85690863 0.86155676 0.89920818
 0.90787533 0.93749244]
  17 ( 0.333  0.667  0.667)   [-0.17667967 -0.17411911 -0.13676555 -0.1349038  -0.13461236 -0.13210901
 -0.13061983 -0.12924532 -0.1279817  -0.12683951 -0.09493563 -0.06232853
  0.16616071  0.2044137   0.26881969  0.31322654  0.34384829  0.34786281] [0.68174665 0.72813875 0.81611378 0.85690872 0.86155655 0.89920807
 0.90787552 0.93749262]
  18 ( 0.667  0.000  0.000)   [-0.18003565 -0.17440968 -0.13650672 -0.13589641 -0.13301207 -0.13102744
 -0.13099198 -0.12975119 -0.12841619 -0.12607506 -0.10549105 -0.03701896
  0.15912882  0.20224756  0.24608395  0.29781018  0.34712479  0.36777224] [0.71039511 0.75008298 0.79064786 0.83608262 0.87884413 0.91040345
 0.9293634  0.92943318]
  19 ( 0.667  0.000  0.333)   [-0.17667984 -0.17411913 -0.13676561 -0.13490373 -0.13461212 -0.13210897
 -0.13061993 -0.12924547 -0.12798158 -0.12683946 -0.09493582 -0.06232842
  0.16616005  0.2044143   0.26882011  0.31322691  0.34384816  0.34786297] [0.68174565 0.72813974 0.81611422 0.85690859 0.86155711 0.8992078
 0.90787573 0.93749232]
  20 ( 0.667  0.000  0.667)   [-0.17667978 -0.17411919 -0.13676564 -0.13490382 -0.13461219 -0.13210885
 -0.13061995 -0.12924534 -0.12798165 -0.12683944 -0.0949357  -0.06232855
  0.16616065  0.20441372  0.26881993  0.31322691  0.34384824  0.34786299] [0.68174677 0.72813897 0.81611365 0.85690886 0.86155696 0.89920788
 0.90787588 0.93749232]
  21 ( 0.667  0.333  0.000)   [-0.18003553 -0.17440962 -0.13650667 -0.1358966  -0.13301204 -0.1310274
 -0.1309921  -0.12975106 -0.12841623 -0.12607516 -0.10549102 -0.03701889
  0.15912927  0.20224698  0.24608394  0.29780977  0.34712466  0.36777214] [0.71039486 0.75008296 0.7906479  0.83608223 0.87884425 0.91040368
 0.92936349 0.92943279]
  22 ( 0.667  0.333  0.333)   [-0.17667967 -0.17411911 -0.13676555 -0.1349038  -0.13461236 -0.13210901
 -0.13061983 -0.12924532 -0.1279817  -0.12683951 -0.09493563 -0.06232853
  0.16616071  0.2044137   0.26881969  0.31322654  0.34384829  0.34786281] [0.68174665 0.72813875 0.81611378 0.85690872 0.86155655 0.89920807
 0.90787552 0.93749262]
  23 ( 0.667  0.333  0.667)   [-0.17667972 -0.17411905 -0.13676559 -0.13490362 -0.13461232 -0.13210909
 -0.13061992 -0.12924535 -0.12798162 -0.12683954 -0.09493581 -0.06232832
  0.16616004  0.20441421  0.26882004  0.31322658  0.34384815  0.34786276] [0.68174528 0.72813983 0.81611414 0.85690863 0.86155676 0.89920818
 0.90787533 0.93749244]
  24 ( 0.667  0.667  0.000)   [-0.17459804 -0.17458902 -0.13839921 -0.13131369 -0.13129481 -0.13058627
 -0.13023015 -0.13022508 -0.12882305 -0.12729602 -0.0430438  -0.04303601
  0.18371432  0.18371602  0.18619919  0.27608268  0.27609476  0.28672145] [0.73689091 0.8553539  0.85535689 0.87395858 0.87395905 0.90562232
 0.90563268 0.91379099]
  25 ( 0.667  0.667  0.333)   [-0.17340378 -0.17339895 -0.13604604 -0.13374083 -0.13373548 -0.13144458
 -0.12905297 -0.1290018  -0.12850166 -0.1284999  -0.04240038 -0.04239641
  0.15716998  0.15717068  0.20687626  0.25589025  0.32127173  0.32127695] [0.75855521 0.75855639 0.78754479 0.8748062  0.9012706  0.90127664
 0.94034397 0.94034452]
  26 ( 0.667  0.667  0.667)   [-0.17340376 -0.17339897 -0.13604604 -0.13374077 -0.13373547 -0.13144459
 -0.12905297 -0.12900179 -0.12850172 -0.12849991 -0.04240043 -0.04239636
  0.15716991  0.15717074  0.20687626  0.25589025  0.32127175  0.32127693] [0.75855507 0.75855653 0.78754478 0.87480621 0.90127085 0.9012764
 0.94034403 0.94034445]
nelec by numeric integration = 36.00011862513032
    CPU time for vxc     12.37 sec, wall time      1.32 sec
    CPU time for get_j      3.73 sec, wall time      0.41 sec
    CPU time for vj and vk      3.73 sec, wall time      0.41 sec
Ewald components = 6.77773183084737, -128.779455527716, 5.42224205397643
E1 = (-87.96231343012442-1.7732728865540693e-17j)  Ecoul = 60.82296141480009  Exc = -25.798060429824808
cycle= 5 E= -169.516894088041  delta_E= -2.14e-07  |g|= 0.000231  |ddm|= 0.00521
    CPU time for cycle= 5     16.69 sec, wall time      1.79 sec
HOMO = 0.402815591675  LUMO = 0.667886737246
     k-point                  mo_energy
   0 ( 0.000  0.000  0.000)   [-0.20064684 -0.17701373 -0.13875022 -0.13833799 -0.13832874 -0.13623097
 -0.13622739 -0.12993723 -0.12991201 -0.12658537 -0.12655407 -0.06235721
  0.11629432  0.35480771  0.35481399  0.40011172  0.40281501  0.40281559] [0.66788674 0.67400548 0.78504051 0.78504136 0.80496032 0.8575721
 0.85758609 0.97140041]
   1 ( 0.000  0.000  0.333)   [-0.19063021 -0.17884396 -0.13808964 -0.13808134 -0.13702145 -0.13701597
 -0.13291887 -0.1288536  -0.12882734 -0.12719287 -0.12716366 -0.09958751
  0.18775625  0.31740272  0.36593051  0.36593529  0.3898532   0.3898551 ] [0.68719435 0.71367604 0.80231852 0.80232192 0.80605764 0.83846698
 0.83847758 0.91356359]
   2 ( 0.000  0.000  0.667)   [-0.19063021 -0.17884396 -0.13808964 -0.13808134 -0.13702145 -0.13701597
 -0.13291887 -0.1288536  -0.12882734 -0.12719287 -0.12716366 -0.09958751
  0.18775625  0.31740272  0.36593051  0.36593529  0.3898532   0.3898551 ] [0.68719435 0.71367604 0.80231852 0.80232192 0.80605764 0.83846698
 0.83847758 0.91356359]
   3 ( 0.000  0.333  0.000)   [-0.18003529 -0.1743981  -0.13647931 -0.13591142 -0.1330125  -0.13102495
 -0.13099395 -0.12973037 -0.12842016 -0.12609247 -0.10548967 -0.03701174
  0.15912549  0.20223455  0.24607157  0.29780048  0.34712646  0.36776525] [0.71041945 0.75011101 0.79064703 0.836079   0.87884047 0.9103975
 0.92935861 0.9294239 ]
   4 ( 0.000  0.333  0.333)   [-0.17667616 -0.17410946 -0.13674573 -0.13489498 -0.13462532 -0.1321154
 -0.13060949 -0.12923842 -0.12798771 -0.12685228 -0.09493159 -0.06232253
  0.16615381  0.20440814  0.26880858  0.31321788  0.34384454  0.3478553 ] [0.68176405 0.72816946 0.81611677 0.85690572 0.86155216 0.8992032
 0.9078684  0.93748853]
   5 ( 0.000  0.333  0.667)   [-0.17667622 -0.17410941 -0.13674542 -0.13489516 -0.13462532 -0.13211537
 -0.13060947 -0.12923851 -0.12798788 -0.12685214 -0.09493172 -0.06232245
  0.16615437  0.20440745  0.26880857  0.31321787  0.34384467  0.34785532] [0.68176452 0.72816896 0.81611708 0.85690548 0.86155196 0.89920332
 0.90786859 0.93748839]
   6 ( 0.000  0.667  0.000)   [-0.18003529 -0.1743981  -0.13647931 -0.13591142 -0.1330125  -0.13102495
 -0.13099395 -0.12973037 -0.12842016 -0.12609247 -0.10548967 -0.03701174
  0.15912549  0.20223455  0.24607157  0.29780048  0.34712646  0.36776525] [0.71041945 0.75011101 0.79064703 0.836079   0.87884047 0.9103975
 0.92935861 0.9294239 ]
   7 ( 0.000  0.667  0.333)   [-0.17667622 -0.17410941 -0.13674542 -0.13489516 -0.13462532 -0.13211537
 -0.13060947 -0.12923851 -0.12798788 -0.12685214 -0.09493172 -0.06232245
  0.16615437  0.20440745  0.26880857  0.31321787  0.34384467  0.34785532] [0.68176452 0.72816896 0.81611708 0.85690548 0.86155196 0.89920332
 0.90786859 0.93748839]
   8 ( 0.000  0.667  0.667)   [-0.17667616 -0.17410946 -0.13674573 -0.13489498 -0.13462532 -0.1321154
 -0.13060949 -0.12923842 -0.12798771 -0.12685228 -0.09493159 -0.06232253
  0.16615381  0.20440814  0.26880858  0.31321788  0.34384454  0.3478553 ] [0.68176405 0.72816946 0.81611677 0.85690572 0.86155216 0.8992032
 0.9078684  0.93748853]
   9 ( 0.333  0.000  0.000)   [-0.18003627 -0.17440903 -0.13650344 -0.13589302 -0.13300859 -0.13102407
 -0.13098877 -0.12974752 -0.12841288 -0.12607147 -0.10549046 -0.03701973
  0.1591259   0.20224579  0.24608238  0.29780736  0.34712     0.36776869] [0.71039517 0.75008336 0.79064397 0.83608172 0.87884372 0.91040053
 0.92936068 0.92943118]
  10 ( 0.333  0.000  0.333)   [-0.17668    -0.17411876 -0.13676233 -0.13490052 -0.13460883 -0.13210557
 -0.13061638 -0.12924185 -0.1279783  -0.12683594 -0.09493546 -0.06232905
  0.16615854  0.20441173  0.26881708  0.31322396  0.34384394  0.34785968] [0.68174569 0.72813912 0.81611196 0.85690656 0.86155573 0.89920641
 0.90787409 0.93748961]
  11 ( 0.333  0.000  0.667)   [-0.17668007 -0.1741187  -0.13676231 -0.13490039 -0.13460875 -0.13210569
 -0.13061639 -0.12924196 -0.12797821 -0.12683597 -0.09493559 -0.06232891
  0.16615786  0.20441252  0.26881704  0.31322396  0.34384396  0.34785968] [0.68174461 0.72813988 0.81611206 0.85690675 0.86155586 0.89920658
 0.90787397 0.93748934]
  12 ( 0.333  0.333  0.000)   [-0.17459741 -0.17458839 -0.13839576 -0.13131042 -0.13129154 -0.13058308
 -0.13022646 -0.1302214  -0.1288198  -0.12729236 -0.04304529 -0.04303749
  0.18371393  0.18371562  0.1861973   0.27607864  0.27609075  0.28671899] [0.73688885 0.85534897 0.85535214 0.87395742 0.87395787 0.90562303
 0.90563345 0.91378761]
  13 ( 0.333  0.333  0.333)   [-0.17340309 -0.17339831 -0.13604257 -0.13373742 -0.13373212 -0.13144123
 -0.12904971 -0.12899834 -0.12849815 -0.12849635 -0.04240198 -0.0423979
  0.15716927  0.15716989  0.2068743   0.25588804  0.32126789  0.32127306] [0.75855179 0.75855352 0.7875423  0.87480309 0.90127165 0.9012773
 0.94034135 0.94034195]
  14 ( 0.333  0.333  0.667)   [-0.1734031  -0.17339829 -0.13604257 -0.13373748 -0.13373213 -0.13144121
 -0.12904971 -0.12899836 -0.12849809 -0.12849634 -0.04240193 -0.04239794
  0.15716936  0.1571698   0.2068743   0.25588803  0.32126787  0.32127308] [0.75855191 0.7585534  0.78754231 0.87480309 0.90127141 0.90127754
 0.9403413  0.940342  ]
  15 ( 0.333  0.667  0.000)   [-0.18003615 -0.17440897 -0.1365034  -0.13589321 -0.13300856 -0.13102403
 -0.13098888 -0.12974739 -0.12841291 -0.12607157 -0.10549044 -0.03701965
  0.15912635  0.2022452   0.24608237  0.29780694  0.34711987  0.36776858] [0.71039492 0.75008334 0.79064401 0.83608133 0.87884384 0.91040076
 0.92936077 0.92943079]
  16 ( 0.333  0.667  0.333)   [-0.17667995 -0.17411863 -0.13676229 -0.13490028 -0.13460895 -0.13210581
 -0.13061639 -0.12924183 -0.12797825 -0.12683605 -0.09493559 -0.06232882
  0.16615785  0.20441243  0.26881698  0.31322362  0.34384395  0.34785946] [0.68174423 0.72813997 0.81611197 0.85690679 0.8615555  0.89920695
 0.90787357 0.93748946]
  17 ( 0.333  0.667  0.667)   [-0.17667989 -0.17411868 -0.13676224 -0.1349005  -0.13460899 -0.13210573
 -0.13061625 -0.12924184 -0.12797834 -0.126836   -0.0949354  -0.06232903
  0.1661586   0.20441171  0.26881684  0.31322359  0.34384399  0.3478595 ] [0.68174556 0.7281389  0.81611208 0.85690643 0.86155532 0.8992066
 0.90787374 0.93748991]
  18 ( 0.667  0.000  0.000)   [-0.18003627 -0.17440903 -0.13650344 -0.13589302 -0.13300859 -0.13102407
 -0.13098877 -0.12974752 -0.12841288 -0.12607147 -0.10549046 -0.03701973
  0.1591259   0.20224579  0.24608238  0.29780736  0.34712     0.36776869] [0.71039517 0.75008336 0.79064397 0.83608172 0.87884372 0.91040053
 0.92936068 0.92943118]
  19 ( 0.667  0.000  0.333)   [-0.17668007 -0.1741187  -0.13676231 -0.13490039 -0.13460875 -0.13210569
 -0.13061639 -0.12924196 -0.12797821 -0.12683597 -0.09493559 -0.06232891
  0.16615786  0.20441252  0.26881704  0.31322396  0.34384396  0.34785968] [0.68174461 0.72813988 0.81611206 0.85690675 0.86155586 0.89920658
 0.90787397 0.93748934]
  20 ( 0.667  0.000  0.667)   [-0.17668    -0.17411876 -0.13676233 -0.13490052 -0.13460883 -0.13210557
 -0.13061638 -0.12924185 -0.1279783  -0.12683594 -0.09493546 -0.06232905
  0.16615854  0.20441173  0.26881708  0.31322396  0.34384394  0.34785968] [0.68174569 0.72813912 0.81611196 0.85690656 0.86155573 0.89920641
 0.90787409 0.93748961]
  21 ( 0.667  0.333  0.000)   [-0.18003615 -0.17440897 -0.1365034  -0.13589321 -0.13300856 -0.13102403
 -0.13098888 -0.12974739 -0.12841291 -0.12607157 -0.10549044 -0.03701965
  0.15912635  0.2022452   0.24608237  0.29780694  0.34711987  0.36776858] [0.71039492 0.75008334 0.79064401 0.83608133 0.87884384 0.91040076
 0.92936077 0.92943079]
  22 ( 0.667  0.333  0.333)   [-0.17667989 -0.17411868 -0.13676224 -0.1349005  -0.13460899 -0.13210573
 -0.13061625 -0.12924184 -0.12797834 -0.126836   -0.0949354  -0.06232903
  0.1661586   0.20441171  0.26881684  0.31322359  0.34384399  0.3478595 ] [0.68174556 0.7281389  0.81611208 0.85690643 0.86155532 0.8992066
 0.90787374 0.93748991]
  23 ( 0.667  0.333  0.667)   [-0.17667995 -0.17411863 -0.13676229 -0.13490028 -0.13460895 -0.13210581
 -0.13061639 -0.12924183 -0.12797825 -0.12683605 -0.09493559 -0.06232882
  0.16615785  0.20441243  0.26881698  0.31322362  0.34384395  0.34785946] [0.68174423 0.72813997 0.81611197 0.85690679 0.8615555  0.89920695
 0.90787357 0.93748946]
  24 ( 0.667  0.667  0.000)   [-0.17459741 -0.17458839 -0.13839576 -0.13131042 -0.13129154 -0.13058308
 -0.13022646 -0.1302214  -0.1288198  -0.12729236 -0.04304529 -0.04303749
  0.18371393  0.18371562  0.1861973   0.27607864  0.27609075  0.28671899] [0.73688885 0.85534897 0.85535214 0.87395742 0.87395787 0.90562303
 0.90563345 0.91378761]
  25 ( 0.667  0.667  0.333)   [-0.1734031  -0.17339829 -0.13604257 -0.13373748 -0.13373213 -0.13144121
 -0.12904971 -0.12899836 -0.12849809 -0.12849634 -0.04240193 -0.04239794
  0.15716936  0.1571698   0.2068743   0.25588803  0.32126787  0.32127308] [0.75855191 0.7585534  0.78754231 0.87480309 0.90127141 0.90127754
 0.9403413  0.940342  ]
  26 ( 0.667  0.667  0.667)   [-0.17340309 -0.17339831 -0.13604257 -0.13373742 -0.13373212 -0.13144123
 -0.12904971 -0.12899834 -0.12849815 -0.12849635 -0.04240198 -0.0423979
  0.15716927  0.15716989  0.2068743   0.25588804  0.32126789  0.32127306] [0.75855179 0.75855352 0.7875423  0.87480309 0.90127165 0.9012773
 0.94034135 0.94034195]
nelec by numeric integration = 36.00011862348815
    CPU time for vxc     12.34 sec, wall time      1.32 sec
    CPU time for get_j      4.51 sec, wall time      0.48 sec
    CPU time for vj and vk      4.51 sec, wall time      0.48 sec
Ewald components = 6.77773183084737, -128.779455527716, 5.42224205397643
E1 = (-87.96231323444607-1.8632215112343483e-17j)  Ecoul = 60.8229768833384  Exc = -25.798076094700566
cycle= 6 E= -169.5168940887  delta_E= -6.59e-10  |g|= 3.3e-05  |ddm|= 0.000291
    CPU time for cycle= 6     17.51 sec, wall time      1.88 sec
HOMO = 0.402813836514  LUMO = 0.667885933796
     k-point                  mo_energy
   0 ( 0.000  0.000  0.000)   [-0.20064786 -0.17701387 -0.13874944 -0.13833725 -0.138328   -0.13623022
 -0.13622664 -0.1299364  -0.12991118 -0.12658452 -0.12655323 -0.06235762
  0.11629377  0.35480625  0.35481253  0.40011003  0.40281326  0.40281384] [0.66788593 0.67400494 0.78504052 0.78504138 0.80496029 0.85757171
 0.85758571 0.97139905]
   1 ( 0.000  0.000  0.333)   [-0.19063112 -0.17884433 -0.1380889  -0.1380806  -0.1370207  -0.13701523
 -0.13291824 -0.12885276 -0.12882651 -0.12719202 -0.12716282 -0.09958754
  0.18775544  0.31740144  0.36592899  0.36593378  0.38985154  0.38985344] [0.68719385 0.71367531 0.80231841 0.80232182 0.80605712 0.83846668
 0.83847728 0.91356238]
   2 ( 0.000  0.000  0.667)   [-0.19063112 -0.17884433 -0.1380889  -0.1380806  -0.1370207  -0.13701523
 -0.13291824 -0.12885276 -0.12882651 -0.12719202 -0.12716282 -0.09958754
  0.18775544  0.31740144  0.36592899  0.36593378  0.38985154  0.38985344] [0.68719385 0.71367531 0.80231841 0.80232182 0.80605712 0.83846668
 0.83847728 0.91356238]
   3 ( 0.000  0.333  0.000)   [-0.18003574 -0.17439812 -0.13647853 -0.13591064 -0.13301169 -0.13102415
 -0.13099318 -0.12972953 -0.12841935 -0.12609163 -0.1054896  -0.0370124
  0.15912485  0.20223369  0.2460705   0.29779929  0.34712511  0.36776371] [0.710419   0.7501105  0.79064648 0.83607873 0.87883946 0.91039638
 0.9293577  0.92942309]
   4 ( 0.000  0.333  0.333)   [-0.17667648 -0.17410955 -0.13674495 -0.1348942  -0.13462454 -0.13211463
 -0.13060865 -0.12923761 -0.12798689 -0.12685145 -0.09493169 -0.06232299
  0.16615313  0.20440703  0.26880775  0.31321663  0.34384306  0.34785387] [0.68176365 0.72816901 0.81611653 0.8569045  0.86155175 0.899202
 0.90786768 0.93748769]
   5 ( 0.000  0.333  0.667)   [-0.17667654 -0.17410951 -0.13674464 -0.13489438 -0.13462454 -0.13211459
 -0.13060866 -0.12923768 -0.12798707 -0.12685131 -0.09493182 -0.0623229
  0.16615354  0.20440672  0.26880733  0.31321661  0.34384337  0.34785391] [0.68176419 0.72816851 0.81611596 0.85690509 0.8615515  0.89920257
 0.90786792 0.93748706]
   6 ( 0.000  0.667  0.000)   [-0.18003574 -0.17439812 -0.13647853 -0.13591064 -0.13301169 -0.13102415
 -0.13099318 -0.12972953 -0.12841935 -0.12609163 -0.1054896  -0.0370124
  0.15912485  0.20223369  0.2460705   0.29779929  0.34712511  0.36776371] [0.710419   0.7501105  0.79064648 0.83607873 0.87883946 0.91039638
 0.9293577  0.92942309]
   7 ( 0.000  0.667  0.333)   [-0.17667654 -0.17410951 -0.13674464 -0.13489438 -0.13462454 -0.13211459
 -0.13060866 -0.12923768 -0.12798707 -0.12685131 -0.09493182 -0.0623229
  0.16615354  0.20440672  0.26880733  0.31321661  0.34384337  0.34785391] [0.68176419 0.72816851 0.81611596 0.85690509 0.8615515  0.89920257
 0.90786792 0.93748706]
   8 ( 0.000  0.667  0.667)   [-0.17667648 -0.17410955 -0.13674495 -0.1348942  -0.13462454 -0.13211463
 -0.13060865 -0.12923761 -0.12798689 -0.12685145 -0.09493169 -0.06232299
  0.16615313  0.20440703  0.26880775  0.31321663  0.34384306  0.34785387] [0.68176365 0.72816901 0.81611653 0.8569045  0.86155175 0.899202
 0.90786768 0.93748769]
   9 ( 0.333  0.000  0.000)   [-0.18003672 -0.17440905 -0.13650267 -0.13589224 -0.13300778 -0.13102326
 -0.13098799 -0.12974669 -0.12841207 -0.12607063 -0.1054904  -0.03702039
  0.15912527  0.20224493  0.24608131  0.29780616  0.34711865  0.36776715] [0.71039472 0.75008284 0.79064342 0.83608145 0.87884271 0.91039941
 0.92935977 0.92943038]
  10 ( 0.333  0.000  0.333)   [-0.17668032 -0.17411886 -0.13676155 -0.13489974 -0.13460805 -0.13210478
 -0.13061556 -0.12924102 -0.12797748 -0.12683511 -0.09493557 -0.0623295
  0.16615771  0.204411    0.26881585  0.3132227   0.34384265  0.34785827] [0.68174536 0.72813867 0.81611084 0.85690617 0.86155527 0.89920566
 0.90787342 0.93748828]
  11 ( 0.333  0.000  0.667)   [-0.17668039 -0.1741188  -0.13676153 -0.13489961 -0.13460797 -0.13210492
 -0.13061556 -0.12924115 -0.1279774  -0.12683514 -0.09493568 -0.06232937
  0.16615718  0.20441141  0.26881621  0.31322271  0.34384248  0.34785825] [0.68174421 0.72813943 0.81611181 0.85690552 0.86155545 0.89920538
 0.90787325 0.9374885 ]
  12 ( 0.333  0.333  0.000)   [-0.1745975  -0.17458844 -0.13839497 -0.13130962 -0.13129074 -0.13058228
 -0.13022562 -0.13022056 -0.128819   -0.12729153 -0.04304588 -0.04303804
  0.18371303  0.18371493  0.18619649  0.2760776   0.27608969  0.28671788] [0.73688823 0.85534828 0.85535124 0.87395665 0.87395737 0.90562209
 0.90563246 0.91378634]
  13 ( 0.333  0.333  0.333)   [-0.17340319 -0.17339833 -0.13604178 -0.13373662 -0.13373132 -0.13144042
 -0.12904891 -0.12899753 -0.12849732 -0.12849551 -0.04240262 -0.04239845
  0.15716833  0.15716947  0.20687345  0.25588705  0.32126658  0.32127182] [0.75855148 0.75855286 0.78754147 0.87480195 0.90127079 0.90127636
 0.94034057 0.94034108]
  14 ( 0.333  0.333  0.667)   [-0.1734032  -0.17339831 -0.13604178 -0.13373669 -0.13373134 -0.13144041
 -0.1290489  -0.12899754 -0.12849726 -0.1284955  -0.04240257 -0.04239849
  0.15716837  0.15716942  0.20687345  0.25588704  0.32126656  0.32127184] [0.75855164 0.75855271 0.78754148 0.87480195 0.90127054 0.9012766
 0.94034051 0.94034114]
  15 ( 0.333  0.667  0.000)   [-0.1800366  -0.174409   -0.13650262 -0.13589244 -0.13300775 -0.13102322
 -0.13098811 -0.12974655 -0.1284121  -0.12607073 -0.10549037 -0.03702031
  0.15912572  0.20224434  0.2460813   0.29780574  0.34711852  0.36776705] [0.71039447 0.75008283 0.79064346 0.83608106 0.87884283 0.91039964
 0.92935986 0.92942998]
  16 ( 0.333  0.667  0.333)   [-0.17668027 -0.17411872 -0.13676152 -0.1348995  -0.13460817 -0.13210504
 -0.13061556 -0.12924102 -0.12797743 -0.12683522 -0.09493568 -0.06232928
  0.16615717  0.20441131  0.26881615  0.31322237  0.34384247  0.34785804] [0.68174383 0.72813953 0.81611173 0.85690557 0.86155509 0.89920576
 0.90787285 0.93748862]
  17 ( 0.333  0.667  0.667)   [-0.17668021 -0.17411878 -0.13676146 -0.13489971 -0.13460821 -0.13210495
 -0.13061544 -0.12924101 -0.12797753 -0.12683517 -0.09493551 -0.06232948
  0.16615777  0.20441098  0.26881561  0.31322233  0.3438427   0.34785809] [0.68174523 0.72813845 0.81611097 0.85690604 0.86155486 0.89920585
 0.90787306 0.93748858]
  18 ( 0.667  0.000  0.000)   [-0.18003672 -0.17440905 -0.13650267 -0.13589224 -0.13300778 -0.13102326
 -0.13098799 -0.12974669 -0.12841207 -0.12607063 -0.1054904  -0.03702039
  0.15912527  0.20224493  0.24608131  0.29780616  0.34711865  0.36776715] [0.71039472 0.75008284 0.79064342 0.83608145 0.87884271 0.91039941
 0.92935977 0.92943038]
  19 ( 0.667  0.000  0.333)   [-0.17668039 -0.1741188  -0.13676153 -0.13489961 -0.13460797 -0.13210492
 -0.13061556 -0.12924115 -0.1279774  -0.12683514 -0.09493568 -0.06232937
  0.16615718  0.20441141  0.26881621  0.31322271  0.34384248  0.34785825] [0.68174421 0.72813943 0.81611181 0.85690552 0.86155545 0.89920538
 0.90787325 0.9374885 ]
  20 ( 0.667  0.000  0.667)   [-0.17668032 -0.17411886 -0.13676155 -0.13489974 -0.13460805 -0.13210478
 -0.13061556 -0.12924102 -0.12797748 -0.12683511 -0.09493557 -0.0623295
  0.16615771  0.204411    0.26881585  0.3132227   0.34384265  0.34785827] [0.68174536 0.72813867 0.81611084 0.85690617 0.86155527 0.89920566
 0.90787342 0.93748828]
  21 ( 0.667  0.333  0.000)   [-0.1800366  -0.174409   -0.13650262 -0.13589244 -0.13300775 -0.13102322
 -0.13098811 -0.12974655 -0.1284121  -0.12607073 -0.10549037 -0.03702031
  0.15912572  0.20224434  0.2460813   0.29780574  0.34711852  0.36776705] [0.71039447 0.75008283 0.79064346 0.83608106 0.87884283 0.91039964
 0.92935986 0.92942998]
  22 ( 0.667  0.333  0.333)   [-0.17668021 -0.17411878 -0.13676146 -0.13489971 -0.13460821 -0.13210495
 -0.13061544 -0.12924101 -0.12797753 -0.12683517 -0.09493551 -0.06232948
[...]
Read Lpq (kL: 18 / 27, ki: 6, kj: 19)
Read Lpq (kL: 18 / 27, ki: 7, kj: 20)
Read Lpq (kL: 18 / 27, ki: 8, kj: 18)
Read Lpq (kL: 18 / 27, ki: 9, kj: 4)
Read Lpq (kL: 18 / 27, ki: 10, kj: 5)
Read Lpq (kL: 18 / 27, ki: 11, kj: 3)
Read Lpq (kL: 18 / 27, ki: 12, kj: 7)
Read Lpq (kL: 18 / 27, ki: 13, kj: 8)
Read Lpq (kL: 18 / 27, ki: 14, kj: 6)
Read Lpq (kL: 18 / 27, ki: 15, kj: 1)
Read Lpq (kL: 18 / 27, ki: 16, kj: 2)
Read Lpq (kL: 18 / 27, ki: 17, kj: 0)
Read Lpq (kL: 18 / 27, ki: 18, kj: 13)
Read Lpq (kL: 18 / 27, ki: 19, kj: 14)
Read Lpq (kL: 18 / 27, ki: 20, kj: 12)
Read Lpq (kL: 18 / 27, ki: 21, kj: 16)
Read Lpq (kL: 18 / 27, ki: 22, kj: 17)
Read Lpq (kL: 18 / 27, ki: 23, kj: 15)
Read Lpq (kL: 18 / 27, ki: 24, kj: 10)
Read Lpq (kL: 18 / 27, ki: 25, kj: 11)
Read Lpq (kL: 18 / 27, ki: 26, kj: 9)
Read Lpq (kL: 19 / 27, ki: 0, kj: 9)
Read Lpq (kL: 19 / 27, ki: 1, kj: 10)
Read Lpq (kL: 19 / 27, ki: 2, kj: 11)
Read Lpq (kL: 19 / 27, ki: 3, kj: 12)
Read Lpq (kL: 19 / 27, ki: 4, kj: 13)
Read Lpq (kL: 19 / 27, ki: 5, kj: 14)
Read Lpq (kL: 19 / 27, ki: 6, kj: 15)
Read Lpq (kL: 19 / 27, ki: 7, kj: 16)
Read Lpq (kL: 19 / 27, ki: 8, kj: 17)
Read Lpq (kL: 19 / 27, ki: 9, kj: 18)
Read Lpq (kL: 19 / 27, ki: 10, kj: 19)
Read Lpq (kL: 19 / 27, ki: 11, kj: 20)
Read Lpq (kL: 19 / 27, ki: 12, kj: 21)
Read Lpq (kL: 19 / 27, ki: 13, kj: 22)
Read Lpq (kL: 19 / 27, ki: 14, kj: 23)
Read Lpq (kL: 19 / 27, ki: 15, kj: 24)
Read Lpq (kL: 19 / 27, ki: 16, kj: 25)
Read Lpq (kL: 19 / 27, ki: 17, kj: 26)
Read Lpq (kL: 19 / 27, ki: 18, kj: 0)
Read Lpq (kL: 19 / 27, ki: 19, kj: 1)
Read Lpq (kL: 19 / 27, ki: 20, kj: 2)
Read Lpq (kL: 19 / 27, ki: 21, kj: 3)
Read Lpq (kL: 19 / 27, ki: 22, kj: 4)
Read Lpq (kL: 19 / 27, ki: 23, kj: 5)
Read Lpq (kL: 19 / 27, ki: 24, kj: 6)
Read Lpq (kL: 19 / 27, ki: 25, kj: 7)
Read Lpq (kL: 19 / 27, ki: 26, kj: 8)
Read Lpq (kL: 20 / 27, ki: 0, kj: 11)
Read Lpq (kL: 20 / 27, ki: 1, kj: 9)
Read Lpq (kL: 20 / 27, ki: 2, kj: 10)
Read Lpq (kL: 20 / 27, ki: 3, kj: 14)
Read Lpq (kL: 20 / 27, ki: 4, kj: 12)
Read Lpq (kL: 20 / 27, ki: 5, kj: 13)
Read Lpq (kL: 20 / 27, ki: 6, kj: 17)
Read Lpq (kL: 20 / 27, ki: 7, kj: 15)
Read Lpq (kL: 20 / 27, ki: 8, kj: 16)
Read Lpq (kL: 20 / 27, ki: 9, kj: 20)
Read Lpq (kL: 20 / 27, ki: 10, kj: 18)
Read Lpq (kL: 20 / 27, ki: 11, kj: 19)
Read Lpq (kL: 20 / 27, ki: 12, kj: 23)
Read Lpq (kL: 20 / 27, ki: 13, kj: 21)
Read Lpq (kL: 20 / 27, ki: 14, kj: 22)
Read Lpq (kL: 20 / 27, ki: 15, kj: 26)
Read Lpq (kL: 20 / 27, ki: 16, kj: 24)
Read Lpq (kL: 20 / 27, ki: 17, kj: 25)
Read Lpq (kL: 20 / 27, ki: 18, kj: 2)
Read Lpq (kL: 20 / 27, ki: 19, kj: 0)
Read Lpq (kL: 20 / 27, ki: 20, kj: 1)
Read Lpq (kL: 20 / 27, ki: 21, kj: 5)
Read Lpq (kL: 20 / 27, ki: 22, kj: 3)
Read Lpq (kL: 20 / 27, ki: 23, kj: 4)
Read Lpq (kL: 20 / 27, ki: 24, kj: 8)
Read Lpq (kL: 20 / 27, ki: 25, kj: 6)
Read Lpq (kL: 20 / 27, ki: 26, kj: 7)
Read Lpq (kL: 21 / 27, ki: 0, kj: 10)
Read Lpq (kL: 21 / 27, ki: 1, kj: 11)
Read Lpq (kL: 21 / 27, ki: 2, kj: 9)
Read Lpq (kL: 21 / 27, ki: 3, kj: 13)
Read Lpq (kL: 21 / 27, ki: 4, kj: 14)
Read Lpq (kL: 21 / 27, ki: 5, kj: 12)
Read Lpq (kL: 21 / 27, ki: 6, kj: 16)
Read Lpq (kL: 21 / 27, ki: 7, kj: 17)
Read Lpq (kL: 21 / 27, ki: 8, kj: 15)
Read Lpq (kL: 21 / 27, ki: 9, kj: 19)
Read Lpq (kL: 21 / 27, ki: 10, kj: 20)
Read Lpq (kL: 21 / 27, ki: 11, kj: 18)
Read Lpq (kL: 21 / 27, ki: 12, kj: 22)
Read Lpq (kL: 21 / 27, ki: 13, kj: 23)
Read Lpq (kL: 21 / 27, ki: 14, kj: 21)
Read Lpq (kL: 21 / 27, ki: 15, kj: 25)
Read Lpq (kL: 21 / 27, ki: 16, kj: 26)
Read Lpq (kL: 21 / 27, ki: 17, kj: 24)
Read Lpq (kL: 21 / 27, ki: 18, kj: 1)
Read Lpq (kL: 21 / 27, ki: 19, kj: 2)
Read Lpq (kL: 21 / 27, ki: 20, kj: 0)
Read Lpq (kL: 21 / 27, ki: 21, kj: 4)
Read Lpq (kL: 21 / 27, ki: 22, kj: 5)
Read Lpq (kL: 21 / 27, ki: 23, kj: 3)
Read Lpq (kL: 21 / 27, ki: 24, kj: 7)
Read Lpq (kL: 21 / 27, ki: 25, kj: 8)
Read Lpq (kL: 21 / 27, ki: 26, kj: 6)
Read Lpq (kL: 22 / 27, ki: 0, kj: 15)
Read Lpq (kL: 22 / 27, ki: 1, kj: 16)
Read Lpq (kL: 22 / 27, ki: 2, kj: 17)
Read Lpq (kL: 22 / 27, ki: 3, kj: 9)
Read Lpq (kL: 22 / 27, ki: 4, kj: 10)
Read Lpq (kL: 22 / 27, ki: 5, kj: 11)
Read Lpq (kL: 22 / 27, ki: 6, kj: 12)
Read Lpq (kL: 22 / 27, ki: 7, kj: 13)
Read Lpq (kL: 22 / 27, ki: 8, kj: 14)
Read Lpq (kL: 22 / 27, ki: 9, kj: 24)
Read Lpq (kL: 22 / 27, ki: 10, kj: 25)
Read Lpq (kL: 22 / 27, ki: 11, kj: 26)
Read Lpq (kL: 22 / 27, ki: 12, kj: 18)
Read Lpq (kL: 22 / 27, ki: 13, kj: 19)
Read Lpq (kL: 22 / 27, ki: 14, kj: 20)
Read Lpq (kL: 22 / 27, ki: 15, kj: 21)
Read Lpq (kL: 22 / 27, ki: 16, kj: 22)
Read Lpq (kL: 22 / 27, ki: 17, kj: 23)
Read Lpq (kL: 22 / 27, ki: 18, kj: 6)
Read Lpq (kL: 22 / 27, ki: 19, kj: 7)
Read Lpq (kL: 22 / 27, ki: 20, kj: 8)
Read Lpq (kL: 22 / 27, ki: 21, kj: 0)
Read Lpq (kL: 22 / 27, ki: 22, kj: 1)
Read Lpq (kL: 22 / 27, ki: 23, kj: 2)
Read Lpq (kL: 22 / 27, ki: 24, kj: 3)
Read Lpq (kL: 22 / 27, ki: 25, kj: 4)
Read Lpq (kL: 22 / 27, ki: 26, kj: 5)
Read Lpq (kL: 23 / 27, ki: 0, kj: 17)
Read Lpq (kL: 23 / 27, ki: 1, kj: 15)
Read Lpq (kL: 23 / 27, ki: 2, kj: 16)
Read Lpq (kL: 23 / 27, ki: 3, kj: 11)
Read Lpq (kL: 23 / 27, ki: 4, kj: 9)
Read Lpq (kL: 23 / 27, ki: 5, kj: 10)
Read Lpq (kL: 23 / 27, ki: 6, kj: 14)
Read Lpq (kL: 23 / 27, ki: 7, kj: 12)
Read Lpq (kL: 23 / 27, ki: 8, kj: 13)
Read Lpq (kL: 23 / 27, ki: 9, kj: 26)
Read Lpq (kL: 23 / 27, ki: 10, kj: 24)
Read Lpq (kL: 23 / 27, ki: 11, kj: 25)
Read Lpq (kL: 23 / 27, ki: 12, kj: 20)
Read Lpq (kL: 23 / 27, ki: 13, kj: 18)
Read Lpq (kL: 23 / 27, ki: 14, kj: 19)
Read Lpq (kL: 23 / 27, ki: 15, kj: 23)
Read Lpq (kL: 23 / 27, ki: 16, kj: 21)
Read Lpq (kL: 23 / 27, ki: 17, kj: 22)
Read Lpq (kL: 23 / 27, ki: 18, kj: 8)
Read Lpq (kL: 23 / 27, ki: 19, kj: 6)
Read Lpq (kL: 23 / 27, ki: 20, kj: 7)
Read Lpq (kL: 23 / 27, ki: 21, kj: 2)
Read Lpq (kL: 23 / 27, ki: 22, kj: 0)
Read Lpq (kL: 23 / 27, ki: 23, kj: 1)
Read Lpq (kL: 23 / 27, ki: 24, kj: 5)
Read Lpq (kL: 23 / 27, ki: 25, kj: 3)
Read Lpq (kL: 23 / 27, ki: 26, kj: 4)
Read Lpq (kL: 24 / 27, ki: 0, kj: 16)
Read Lpq (kL: 24 / 27, ki: 1, kj: 17)
Read Lpq (kL: 24 / 27, ki: 2, kj: 15)
Read Lpq (kL: 24 / 27, ki: 3, kj: 10)
Read Lpq (kL: 24 / 27, ki: 4, kj: 11)
Read Lpq (kL: 24 / 27, ki: 5, kj: 9)
Read Lpq (kL: 24 / 27, ki: 6, kj: 13)
Read Lpq (kL: 24 / 27, ki: 7, kj: 14)
Read Lpq (kL: 24 / 27, ki: 8, kj: 12)
Read Lpq (kL: 24 / 27, ki: 9, kj: 25)
Read Lpq (kL: 24 / 27, ki: 10, kj: 26)
Read Lpq (kL: 24 / 27, ki: 11, kj: 24)
Read Lpq (kL: 24 / 27, ki: 12, kj: 19)
Read Lpq (kL: 24 / 27, ki: 13, kj: 20)
Read Lpq (kL: 24 / 27, ki: 14, kj: 18)
Read Lpq (kL: 24 / 27, ki: 15, kj: 22)
Read Lpq (kL: 24 / 27, ki: 16, kj: 23)
Read Lpq (kL: 24 / 27, ki: 17, kj: 21)
Read Lpq (kL: 24 / 27, ki: 18, kj: 7)
Read Lpq (kL: 24 / 27, ki: 19, kj: 8)
Read Lpq (kL: 24 / 27, ki: 20, kj: 6)
Read Lpq (kL: 24 / 27, ki: 21, kj: 1)
Read Lpq (kL: 24 / 27, ki: 22, kj: 2)
Read Lpq (kL: 24 / 27, ki: 23, kj: 0)
Read Lpq (kL: 24 / 27, ki: 24, kj: 4)
Read Lpq (kL: 24 / 27, ki: 25, kj: 5)
Read Lpq (kL: 24 / 27, ki: 26, kj: 3)
Read Lpq (kL: 25 / 27, ki: 0, kj: 12)
Read Lpq (kL: 25 / 27, ki: 1, kj: 13)
Read Lpq (kL: 25 / 27, ki: 2, kj: 14)
Read Lpq (kL: 25 / 27, ki: 3, kj: 15)
Read Lpq (kL: 25 / 27, ki: 4, kj: 16)
Read Lpq (kL: 25 / 27, ki: 5, kj: 17)
Read Lpq (kL: 25 / 27, ki: 6, kj: 9)
Read Lpq (kL: 25 / 27, ki: 7, kj: 10)
Read Lpq (kL: 25 / 27, ki: 8, kj: 11)
Read Lpq (kL: 25 / 27, ki: 9, kj: 21)
Read Lpq (kL: 25 / 27, ki: 10, kj: 22)
Read Lpq (kL: 25 / 27, ki: 11, kj: 23)
Read Lpq (kL: 25 / 27, ki: 12, kj: 24)
Read Lpq (kL: 25 / 27, ki: 13, kj: 25)
Read Lpq (kL: 25 / 27, ki: 14, kj: 26)
Read Lpq (kL: 25 / 27, ki: 15, kj: 18)
Read Lpq (kL: 25 / 27, ki: 16, kj: 19)
Read Lpq (kL: 25 / 27, ki: 17, kj: 20)
Read Lpq (kL: 25 / 27, ki: 18, kj: 3)
Read Lpq (kL: 25 / 27, ki: 19, kj: 4)
Read Lpq (kL: 25 / 27, ki: 20, kj: 5)
Read Lpq (kL: 25 / 27, ki: 21, kj: 6)
Read Lpq (kL: 25 / 27, ki: 22, kj: 7)
Read Lpq (kL: 25 / 27, ki: 23, kj: 8)
Read Lpq (kL: 25 / 27, ki: 24, kj: 0)
Read Lpq (kL: 25 / 27, ki: 25, kj: 1)
Read Lpq (kL: 25 / 27, ki: 26, kj: 2)
Read Lpq (kL: 26 / 27, ki: 0, kj: 14)
Read Lpq (kL: 26 / 27, ki: 1, kj: 12)
Read Lpq (kL: 26 / 27, ki: 2, kj: 13)
Read Lpq (kL: 26 / 27, ki: 3, kj: 17)
Read Lpq (kL: 26 / 27, ki: 4, kj: 15)
Read Lpq (kL: 26 / 27, ki: 5, kj: 16)
Read Lpq (kL: 26 / 27, ki: 6, kj: 11)
Read Lpq (kL: 26 / 27, ki: 7, kj: 9)
Read Lpq (kL: 26 / 27, ki: 8, kj: 10)
Read Lpq (kL: 26 / 27, ki: 9, kj: 23)
Read Lpq (kL: 26 / 27, ki: 10, kj: 21)
Read Lpq (kL: 26 / 27, ki: 11, kj: 22)
Read Lpq (kL: 26 / 27, ki: 12, kj: 26)
Read Lpq (kL: 26 / 27, ki: 13, kj: 24)
Read Lpq (kL: 26 / 27, ki: 14, kj: 25)
Read Lpq (kL: 26 / 27, ki: 15, kj: 20)
Read Lpq (kL: 26 / 27, ki: 16, kj: 18)
Read Lpq (kL: 26 / 27, ki: 17, kj: 19)
Read Lpq (kL: 26 / 27, ki: 18, kj: 5)
Read Lpq (kL: 26 / 27, ki: 19, kj: 3)
Read Lpq (kL: 26 / 27, ki: 20, kj: 4)
Read Lpq (kL: 26 / 27, ki: 21, kj: 8)
Read Lpq (kL: 26 / 27, ki: 22, kj: 6)
Read Lpq (kL: 26 / 27, ki: 23, kj: 7)
Read Lpq (kL: 26 / 27, ki: 24, kj: 2)
Read Lpq (kL: 26 / 27, ki: 25, kj: 0)
Read Lpq (kL: 26 / 27, ki: 26, kj: 1)
Read Lpq (kL: 27 / 27, ki: 0, kj: 13)
Read Lpq (kL: 27 / 27, ki: 1, kj: 14)
Read Lpq (kL: 27 / 27, ki: 2, kj: 12)
Read Lpq (kL: 27 / 27, ki: 3, kj: 16)
Read Lpq (kL: 27 / 27, ki: 4, kj: 17)
Read Lpq (kL: 27 / 27, ki: 5, kj: 15)
Read Lpq (kL: 27 / 27, ki: 6, kj: 10)
Read Lpq (kL: 27 / 27, ki: 7, kj: 11)
Read Lpq (kL: 27 / 27, ki: 8, kj: 9)
Read Lpq (kL: 27 / 27, ki: 9, kj: 22)
Read Lpq (kL: 27 / 27, ki: 10, kj: 23)
Read Lpq (kL: 27 / 27, ki: 11, kj: 21)
Read Lpq (kL: 27 / 27, ki: 12, kj: 25)
Read Lpq (kL: 27 / 27, ki: 13, kj: 26)
Read Lpq (kL: 27 / 27, ki: 14, kj: 24)
Read Lpq (kL: 27 / 27, ki: 15, kj: 19)
Read Lpq (kL: 27 / 27, ki: 16, kj: 20)
Read Lpq (kL: 27 / 27, ki: 17, kj: 18)
Read Lpq (kL: 27 / 27, ki: 18, kj: 4)
Read Lpq (kL: 27 / 27, ki: 19, kj: 5)
Read Lpq (kL: 27 / 27, ki: 20, kj: 3)
Read Lpq (kL: 27 / 27, ki: 21, kj: 7)
Read Lpq (kL: 27 / 27, ki: 22, kj: 8)
Read Lpq (kL: 27 / 27, ki: 23, kj: 6)
Read Lpq (kL: 27 / 27, ki: 24, kj: 1)
Read Lpq (kL: 27 / 27, ki: 25, kj: 2)
Read Lpq (kL: 27 / 27, ki: 26, kj: 0)
  GW mo_energy @ k0 =
[-0.27139715 -0.25266592 -0.15703889 -0.1640359  -0.13203449 -0.24884012
 -0.22729513 -0.09526309 -0.24145098 -0.15064799 -0.10361802 -0.05138168
  0.17423192  0.43131023  0.32919185  0.00902864  0.43078875  0.42090136
  0.90420241  0.27221132  0.6520172   1.09928226  0.71036846  1.04581169
  1.05465822  2.44994237]
  GW mo_energy @ k1 =
[-0.26405545 -0.28881857 -0.22317008 -0.08217952 -0.19104486 -0.20832755
 -0.13503901 -0.13132704 -0.17296021 -0.11218203 -0.2473889  -0.15541818
  0.36832809 -0.10187755  0.44932     0.34079735  0.42103692  0.40007319
  0.83231919  0.90960749  0.82926017  0.99031246  0.97302469  1.01621383
  1.04929843  2.46233304]
  GW mo_energy @ k2 =
[-0.28529333 -0.24602848 -0.14431282 -0.17927934 -0.25841147 -0.1497136
 -0.15160199 -0.08627893 -0.29390474 -0.16125852 -0.08772021 -0.06378295
  0.04423548  0.32383059  0.41937116  0.3556038   0.45582589  0.37881145
  0.2573078   1.39660126  0.87204976  1.03070584  0.55694721  0.96794313
  1.00943491  1.2640754 ]
  GW mo_energy @ k3 =
[-0.29434633 -0.20311282 -0.24897584 -0.12115783 -0.12786485 -0.31318002
 -0.08023542 -0.07028127 -0.22737141 -0.09743936 -0.10133163 -0.08159527
  0.09759963  0.08656906  0.1894318   0.20024772  0.666369    0.3702291
  1.01281633  1.21407462  1.18489781  0.93571393  0.95637405  0.0390797
  1.09673172  0.97998203]
  GW mo_energy @ k4 =
[-0.23497748 -0.26062305 -0.24313845 -0.24481004 -0.13436306 -0.0705306
 -0.20541278 -0.11710896 -0.23871224 -0.08277515 -0.0435657  -0.23470794
  0.17925946  0.09206162  0.38530018  0.22638066  0.28390469  0.33130366
  1.13493133  2.18418123  1.10186029  0.8770664   0.93268669  1.02710584
  1.00132628  1.01177271]
  GW mo_energy @ k5 =
[-0.30446243 -0.17670339 -0.25591116 -0.22136348 -0.09245442 -0.13075296
 -0.13113954 -0.15323124 -0.13096594 -0.17720956 -0.20368777 -0.0271388
 -0.02157864  0.16164776  0.19387889  0.2449219   0.81628303  0.30718108
  1.12797707  1.04699025  0.82309349  1.03791547  0.98213138  1.02714805
  0.9553645   0.75892744]
  GW mo_energy @ k6 =
[-0.2145416  -0.20800364 -0.18313419 -0.16641099 -0.288178   -0.2299271
 -0.19970694 -0.05210177 -0.09402998 -0.15834159 -0.17627872 -0.0595988
  0.227677    0.26456425  0.26169817  0.29254367  0.05209942  0.41155268
  0.93332102  0.50892375  0.44478647  0.92190284  0.99349262  1.23656832
  1.37349865  1.10227186]
  GW mo_energy @ k7 =
[-0.18269647 -0.25340289 -0.16734541 -0.3744726  -0.17608206 -0.18793987
 -0.14094754 -0.08876676 -0.05196242 -0.19959997 -0.14385028 -0.14731616
  0.15895878  0.13327864  0.13128136  0.27508429  0.46874305  0.42952062
  1.19817345  0.69995301  0.73903287  1.13746006  0.96309717  1.31153453
  1.05556568  1.04758171]
  GW mo_energy @ k8 =
[-0.25940546 -0.17278748 -0.24554523 -0.15606406 -0.1684715  -0.19537724
 -0.12763927 -0.19293112 -0.15999473 -0.09393181 -0.20417394 -0.06606698
  0.15212494  0.24699599  0.46842954  0.36098047 -0.01915804  0.32393631
  0.81077161  0.91719562  0.68389535  1.03604288  0.98136564  0.96905185
  1.06507769  1.39830154]
  GW mo_energy @ k9 =
[-0.20577964 -0.22606681 -0.29431455 -0.2523721  -0.17507494 -0.04803044
  0.07061467 -0.13897551 -0.34378509 -0.1228833  -0.11566841 -0.10235728
  0.09634461  0.1692639   0.3724684   0.14554232  0.1837141   0.5909269
  0.91206372  0.4388933   0.44288447  1.2986743   0.76772554  1.24383499
  0.86682967  1.27937888]
  GW mo_energy @ k10 =
[-0.25958121 -0.18918543 -0.28864833 -0.11975726 -0.08881827 -0.03310182
 -0.15621647 -0.0651526  -0.34414027 -0.1759622  -0.19225325 -0.17587405
  0.19897303  0.10430117  0.60340963  0.13700873 -0.06433618  0.52007474
  1.89141514  0.33829757  0.85854849  1.08077864  1.30248193  1.28640366
  1.30489615  0.85841397]
  GW mo_energy @ k11 =
[-0.17168017 -0.26007035 -0.19116255 -0.22681755 -0.26072613  0.01859764
 -0.10808207 -0.17137061 -0.24574614 -0.17944775 -0.08134857 -0.13132599
 -0.01207084  0.2455141   0.05449843  0.30091742  0.7154884   0.34526428
  0.68346151  0.71888723  0.62142753  0.83923187  1.34182279  0.95088302
  1.30348364  1.02140877]
  GW mo_energy @ k12 =
[-0.21569438 -0.23876691 -0.16698533 -0.2811095  -0.12804344  0.00378735
 -0.15573504 -0.09423889 -0.35410034 -0.10619838 -0.10123305 -0.15409899
  0.23380172  0.09877308  0.19961779  0.0989051   0.41203092  0.20612455
  0.95055679  1.22394912  0.24183199  2.30031143  0.5825452   1.07594312
  0.66658387  1.62776558]
  GW mo_energy @ k13 =
[-0.26739639 -0.19357436 -0.08657294 -0.22185673 -0.21507741 -0.22965717
 -0.03447923 -0.28370229 -0.11520001 -0.13379497 -0.19991716 -0.08346343
  0.06978623  0.10439089  0.10997005  0.32016222  0.07507037  0.6655673
  1.20394013  1.80851264  1.18960734  1.20088259  1.01390741  0.99051498
  1.12490969  0.6170105 ]
  GW mo_energy @ k14 =
[-0.17647274 -0.27418908 -0.19117444 -0.28253559 -0.08737875  0.08174787
 -0.47092607  0.03999186 -0.13381856 -0.18619557 -0.03030579 -0.22259435
  0.0880263   0.16735452  0.27476789  0.0774518   0.48934872  0.23322027
  1.21029779  0.48477204  0.93967603  1.64620492  1.1125837   0.75058354
  0.87635967  1.26586066]
  GW mo_energy @ k15 =
[-0.17078894 -0.26980426 -0.15770266 -0.1178648  -0.1856935  -0.25080118
 -0.30550208 -0.10462228 -0.07221931 -0.17688147 -0.1396041  -0.08661321
  0.23095265  0.26743506  0.31551637  0.34020741 -0.04311955  0.19492639
  1.17184309  1.1535615   0.09728304  0.60935246  0.4393771   2.39385467
  1.57694292  0.85525028]
  GW mo_energy @ k16 =
[-0.24489745 -0.22490685 -0.09974875 -0.24883909 -0.04112457 -0.34164009
 -0.13683117 -0.13707784  0.0566338  -0.33246161 -0.18474696 -0.15982673
  0.22991634  0.041598    0.37707484  0.46903048  0.05628191  0.12425474
  1.09573676  2.05961181  1.16141162  1.20420278  0.55804801  0.76102476
  0.97383575  1.35884752]
  GW mo_energy @ k17 =
[-0.16689745 -0.28682273 -0.2089656  -0.17948512 -0.20937289 -0.02458927
 -0.12674665 -0.16394706 -0.37524958 -0.04317007 -0.1338229  -0.12170769
 -0.00252427  0.29731096  0.27877369  0.19277662  0.31486839  0.40174077
  1.09139651  0.99938157  0.56874794  1.27075944  0.76248245  0.91694969
  0.6735727   1.27223286]
  GW mo_energy @ k18 =
[-0.23359984 -0.19326825 -0.28349481 -0.2541402  -0.121796   -0.0308587
 -0.01676912 -0.13901617 -0.25263967 -0.14399012 -0.2704622  -0.09091913
  0.26922024  0.20408984  0.29287334  0.22238756 -0.02454428  0.51914739
  0.41321299  0.88712236  0.4617916   1.25000839  1.17062703  1.28952048
  0.77649454  1.28578544]
  GW mo_energy @ k19 =
[-0.18387851 -0.2606956  -0.23717427 -0.16979484 -0.17252069  0.0193023
 -0.15039474 -0.16153627 -0.29495884 -0.2054862  -0.13106171 -0.19777092
  0.14121896  0.17820467  0.4145941   0.13737086  0.09680276  0.56153565
  0.8043555   1.7489043   0.92575329  0.73181458  1.29292584  0.85308007
  1.24738618  1.1069685 ]
  GW mo_energy @ k20 =
[-0.27728647 -0.15339275 -0.2348882  -0.07255583 -0.18668442 -0.15669458
 -0.16809826 -0.13532939 -0.1428098  -0.20020506 -0.26978479 -0.05476693
  0.2203467   0.10407842  0.2927131   0.40418368  0.17370517  0.26241889
  0.74009429  0.59124646  0.90677786  1.30812709  1.2609102   0.78885173
  1.33400119  0.82994924]
  GW mo_energy @ k21 =
[-0.26211258 -0.24768957 -0.19177645 -0.03222691 -0.11089287 -0.16599792
 -0.40304086 -0.15236847  0.00715689 -0.20267773 -0.20147913 -0.02898569
  0.1680871   0.17941085  0.16576426  0.38122898  0.35938542  0.10736287
  1.08699936  1.25418338  0.3086263   0.59429704  1.01833649  1.63261012
  0.91386752  1.095058  ]
  GW mo_energy @ k22 =
[-2.17541160e-01 -3.01311303e-01 -1.14072183e-01 -2.81061529e-01
 -4.76359857e-02 -2.38974325e-01 -1.39188508e-01 -1.43666170e-01
 -1.56469826e-01 -2.43800781e-01 -6.22145226e-02 -2.14394189e-01
  1.82845049e-01  1.23147715e-01  4.88907209e-01  4.28959121e-01
  9.04152439e-05  1.27493081e-01  2.14217910e+00  1.15733598e+00
  8.84576839e-01  1.22020135e+00  6.36743999e-01  1.17119174e+00
  9.48970108e-01  1.31061978e+00]
  GW mo_energy @ k23 =
[-2.99114936e-01 -2.04975720e-01 -2.99937226e-01 -7.62509768e-02
 -5.25568303e-02 -2.20851959e-01 -1.22460928e-01 -1.09361693e-01
 -1.22371700e-01 -2.68093481e-01 -2.73674587e-01  1.29638522e-03
  8.80894482e-02  1.40009079e-01  9.10773513e-02  2.51011912e-01
  7.33507961e-01  2.80071385e-01  1.02849718e+00  2.05772666e+00
  7.88473760e-01  8.14009544e-01  6.93160740e-01  1.16229782e+00
  8.40420422e-01  1.15369341e+00]
  GW mo_energy @ k24 =
[-2.65677792e-01 -1.31486500e-01 -1.80143757e-01 -1.21627890e-01
 -3.06224392e-01 -2.71194891e-01 -1.41102338e-01 -1.11036189e-01
 -2.19980384e-03 -1.57919612e-01 -1.78894288e-01 -1.03052104e-01
  1.08760416e-01  2.58713161e-01  6.22784023e-02  6.85691870e-02
  5.24115240e-01  3.20891724e-01  8.27121859e-01  1.23148236e+00
  1.51873861e-01  1.31266740e+00  2.32552839e+00  6.65782405e-01
  1.00107039e+00  5.01602162e-01]
  GW mo_energy @ k25 =
[-0.14280925 -0.26543576 -0.14909523 -0.26755628 -0.1617163  -0.08181462
 -0.2342553  -0.16701243 -0.15464998 -0.1043016  -0.15568077 -0.17486724
  0.08169459  0.14700694  0.1837443   0.16101271 -0.01517881  0.74991956
  2.11655599  1.23194022  0.59725181  0.88944056  1.07904042  0.67693003
  1.20320232  1.31003252]
  GW mo_energy @ k26 =
[-0.31910373 -0.06577411 -0.17863574 -0.04359016 -0.31702616 -0.19767199
  0.05260318 -0.31074625 -0.09673843 -0.19774675 -0.20585966 -0.06018134
  0.14579175  0.08577087  0.06718197  0.34303109  0.55155616  0.14375665
  1.17269813  0.99633831  1.00093299  0.38965184  0.4858256   1.15986388
  1.28545104  1.16575604]

WARN: GW QP energies may not be sorted from min to max

    CPU time for GW   8980.95 sec, wall time    958.47 sec
DFT HOMO energy: 18.17384414453096
DFT LUMO energy: 10.96096730537859
DFT Band gap at Gamma point [eV]: 7.212876839152371
GW HOMO energy: 7.407142160368481
GW LUMO energy: 11.73638270679022
GW Band gap at Gamma point [eV]: -4.329240546421739
