Command:  /groups/wag/programs/Schrodinger_2020_3/jaguar run -WAIT -PARALLEL 8 alde.in
Release:  2020-3
Exec:     /groups/wag/programs/Schrodinger_2020_3/jaguar-v10.9/bin/Linux-x86_64
Host:     hpc-89-08.cm.cluster
JobId:    hpc-89-08-0-643f5a13
JobDir:   /central/scratch/musgrave/pkozlows/alde#hpc-89-08-0-643f5a13
Date:     Tue Apr 18 20:03:50 2023

Contents of /central/scratch/musgrave/pkozlows/alde#hpc-89-08-0-643f5a13:
/central/scratch/musgrave/pkozlows/alde#hpc-89-08-0-643f5a13/.write_dir.json
/central/scratch/musgrave/pkozlows/alde#hpc-89-08-0-643f5a13/hpc-89-08-0-643f5a13.nodes
/central/scratch/musgrave/pkozlows/alde#hpc-89-08-0-643f5a13/alde.recover
/central/scratch/musgrave/pkozlows/alde#hpc-89-08-0-643f5a13/alde.in
/central/scratch/musgrave/pkozlows/alde#hpc-89-08-0-643f5a13/hpc-89-08-0-643f5a13
/central/scratch/musgrave/pkozlows/alde#hpc-89-08-0-643f5a13/hpc-89-08-0-643f5a13.mpinodes
/central/scratch/musgrave/pkozlows/alde#hpc-89-08-0-643f5a13/hpc-89-08-0-643f5a13.recover
/central/scratch/musgrave/pkozlows/alde#hpc-89-08-0-643f5a13/alde.log

Executing subprocess:
/groups/wag/programs/Schrodinger_2020_3/jaguar-v10.9/bin/Linux-x86_64/jexec alde.in -T 8 -out /central/scratch/musgrave/pkozlows/alde#hpc-89-08-0-643f5a13 -cwd

Job alde started on hpc-89-08.cm.cluster at Tue Apr 18 20:03:51 2023
jobid: hpc-89-08-0-643f5a13 
Jaguar version 10.9, release 139
 Using up to   8 threads per process
Molecular Point Group: Cs      
Point Group used: Cs
pre (input checking) done.
onee (1-electron integrals) done.
hfig (HF initial guess) done.
probe (project orbitals) done.
grid (grid generation) done.
rwr (Q operators) done.
scf type: DFT=PBE(X+LC)+PW91 (PBE-D3)
  
       i  u  d  i  g
       t  p  i  c  r                                 RMS    maximum
       e  d  i  u  i                       energy  density   DIIS  
       r  t  s  t  d       total energy    change  change    error 
  
etot    1  N  N  5  M    -269.24699721993           1.2E-02  1.9E-01
etot    2  Y  Y  6  M    -267.24817950215 -2.0E+00  1.5E-02  2.3E-01
etot    3  Y  Y  6  M    -267.23521151647 -1.3E-02  1.1E-02  2.4E-01
etot    4  N  Y  2  U    -269.98198466798  2.7E+00  4.6E-03  9.1E-02
etot    5  Y  Y  6  M    -270.11301545614  1.3E-01  2.2E-03  3.8E-02
etot    6  N  Y  2  U    -270.17659374030  6.4E-02  7.7E-04  1.6E-02
etot    7  Y  Y  6  M    -270.18088882597  4.3E-03  4.4E-04  8.9E-03
etot    8  Y  Y  6  M    -270.18358171251  2.7E-03  2.9E-04  6.7E-03
etot    9  N  Y  2  U    -270.18466774817  1.1E-03  1.3E-04  3.7E-03
etot   10  Y  Y  6  M    -270.18491197123  2.4E-04  8.5E-05  1.7E-03
etot   11  Y  Y  6  M    -270.18497382010  6.2E-05  1.4E-05  1.4E-04
etot   12  N  Y  2  U    -270.18497551215  1.7E-06  4.1E-06  3.7E-05
etot   13  N  N  2  U    -270.18497558690  7.5E-08  0.0E+00  0.0E+00
scf (DFT) done.
der1a (1-e 1st deriv.) done.
rwr (1st deriv. Q) done.
der1b (2-e 1st deriv.) done.
  Geometry optimization step   1
  Total energy:      -270.18946114558 hartrees
  gradient maximum:        2.3162E-02 .  (  4.5000E-04 )
  gradient rms:            7.2523E-03 .  (  3.0000E-04 )
  displacement maximum:    5.8238E-02 .  (  1.8000E-03 )
  displacement rms:        2.2108E-02 .  (  1.2000E-03 )
  
  predicted energy change: -2.6618E-03
  step size:     0.13265
  trust radius:  0.30000
---------------- geometry iteration   1 complete ----------------
geopt (optimize geometry) done.
onee (1-electron integrals) done.
probe (project orbitals) done.
grid (grid generation) done.
rwr (Q operators) done.
  
       i  u  d  i  g
       t  p  i  c  r                                 RMS    maximum
       e  d  i  u  i                       energy  density   DIIS  
       r  t  s  t  d       total energy    change  change    error 
  
etot    1  N  N  2  U    -270.18650239768           5.2E-04  3.9E-03
etot    2  Y  Y  6  M    -270.18745805568  9.6E-04  2.4E-04  2.5E-03
etot    3  Y  Y  6  M    -270.18714119556 -3.2E-04  1.7E-04  5.5E-03
etot    4  Y  Y  6  M    -270.18761686127  4.8E-04  4.1E-05  8.4E-04
etot    5  N  Y  2  U    -270.18772611438  1.1E-04  1.2E-05  1.2E-04
etot    6  N  Y  2  U    -270.18772686623  7.5E-07  4.7E-06  5.0E-05
etot    7  N  N  2  U    -270.18772694711  8.1E-08  0.0E+00  0.0E+00
scf (DFT) done.
der1a (1-e 1st deriv.) done.
rwr (1st deriv. Q) done.
der1b (2-e 1st deriv.) done.
  Geometry optimization step   2
  Total energy:      -270.19219939968 hartrees
  energy change:          -2.7383E-03 .  (  5.0000E-05 )
  gradient maximum:        3.3788E-03 .  (  4.5000E-04 )
  gradient rms:            1.3101E-03 .  (  3.0000E-04 )
  displacement maximum:    1.3805E-02 .  (  1.8000E-03 )
  displacement rms:        5.6236E-03 .  (  1.2000E-03 )
  
  predicted energy change: -1.1966E-04
  step size:     0.03374
  trust radius:  0.30000
---------------- geometry iteration   2 complete ----------------
geopt (optimize geometry) done.
onee (1-electron integrals) done.
probe (project orbitals) done.
grid (grid generation) done.
rwr (Q operators) done.
  
       i  u  d  i  g
       t  p  i  c  r                                 RMS    maximum
       e  d  i  u  i                       energy  density   DIIS  
       r  t  s  t  d       total energy    change  change    error 
  
etot    1  N  N  2  U    -270.18776888247           1.1E-04  6.9E-04
etot    2  Y  Y  6  M    -270.18783382680  6.5E-05  3.3E-05  3.5E-04
etot    3  N  Y  2  U    -270.18781866803 -1.5E-05  2.7E-05  8.5E-04
etot    4  N  Y  2  U    -270.18783175323  1.3E-05  8.0E-06  1.6E-04
etot    5  N  Y  2  U    -270.18783227752  5.2E-07  2.6E-06  5.3E-05
etot    6  N  N  2  U    -270.18783234325  6.6E-08  0.0E+00  0.0E+00
scf (DFT) done.
der1a (1-e 1st deriv.) done.
rwr (1st deriv. Q) done.
der1b (2-e 1st deriv.) done.
  Geometry optimization step   3
  Total energy:      -270.19230926993 hartrees
  energy change:          -1.0987E-04 .  (  5.0000E-05 )
  gradient maximum:        8.0907E-04 .  (  4.5000E-04 )
  gradient rms:            3.4632E-04 .  (  3.0000E-04 )
  displacement maximum:    5.0746E-03 .  (  1.8000E-03 )
  displacement rms:        1.6217E-03 .  (  1.2000E-03 )
  
  predicted energy change: -7.5722E-06
  step size:     0.00973
  trust radius:  0.30000
---------------- geometry iteration   3 complete ----------------
geopt (optimize geometry) done.
onee (1-electron integrals) done.
probe (project orbitals) done.
grid (grid generation) done.
rwr (Q operators) done.
  
       i  u  d  i  g
       t  p  i  c  r                                 RMS    maximum
       e  d  i  u  i                       energy  density   DIIS  
       r  t  s  t  d       total energy    change  change    error 
  
etot    1  N  N  2  U    -270.18783928738           2.4E-05  1.8E-04
etot    2  N  Y  2  U    -270.18784238376  3.1E-06  7.7E-06  7.7E-05
etot    3  N  Y  2  U    -270.18784184863 -5.4E-07  6.1E-06  1.9E-04
etot    4  N  Y  2  U    -270.18784255035  7.0E-07  1.5E-06  3.0E-05
etot    5  N  N  2  U    -270.18784256409  1.4E-08  0.0E+00  0.0E+00
scf (DFT) done.
der1a (1-e 1st deriv.) done.
rwr (1st deriv. Q) done.
der1b (2-e 1st deriv.) done.
  Geometry optimization step   4
  Total energy:      -270.19231765322 hartrees
  energy change:          -8.3833E-06 *  (  5.0000E-05 )
  gradient maximum:        2.1623E-04 *  (  4.5000E-04 )
  gradient rms:            6.7617E-05 *  (  3.0000E-04 )
  displacement maximum:    6.7323E-04 *  (  1.8000E-03 )
  displacement rms:        2.2167E-04 #  (  1.2000E-03 )
  
  predicted energy change: -2.3137E-07
  step size:     0.00133
  trust radius:  0.30000
------------- final geometry iteration   4 complete -------------
geopt (optimize geometry) done.
cutabab2 (abab integrals) done.
der2a (1-e JK-1st deriv.) done.
grid (grid generation) done.
der2b (2-e JK-1st deriv.) done.
der2nda (1-e 2nd deriv.) done.
der2ndb (2-e 2nd deriv.) done.
rwr (Q operators) done.
cphfa (gradient of wave function) done.
freq (vib. frequencies) done.
Job alde completed on hpc-89-08.cm.cluster at Tue Apr 18 20:05:09 2023
Timer (jaguar_backend.py) : 78.91 secs (0 hrs, 01 mins, 18 secs)
Finished:   Tue Apr 18 20:05:09 2023
