Job alde started on hpc-89-08.cm.cluster at Tue Apr 18 20:03:51 2023
jobid: hpc-89-08-0-643f5a13

  +--------------------------------------------------------------------+
  |  Jaguar version 10.9, release 139                                  |
  |                                                                    |
  |  Copyright Schrodinger, Inc.                                       |
  |  All Rights Reserved.                                              |
  |                                                                    |
  |  The following have contributed to Jaguar (listed alphabetically): |
  |  Mike Beachy, Art Bochevarov, Dale Braden, Yixiang Cao,            |
  |  Alan Chien, Chris Cortis, Rich Friesner, Bill Goddard,            |
  |  Hod Greeley, Tom Hughes, Leif Jacobson, Jean-Marc Langlois,       |
  |  Daniel Levine, Daniel Mainz, Rob Murphy, Dean Philipp,            |
  |  Tom Pollard, Murco Ringnalda, Mark Watson, Haoyu Yu.              |
  |                                                                    |
  |  Use of this program should be acknowledged in publications as:    |
  |                                                                    |
  |  Jaguar, version 10.9, Schrodinger, Inc., New York, NY, 2020.      |
  |                                                                    |
  |  A. D. Bochevarov, E. Harder, T. F. Hughes, J. R. Greenwood,       |
  |  D. A. Braden, D. M. Philipp, D. Rinaldo, M. D. Halls,             |
  |  J. Zhang, R. A. Friesner, "Jaguar: A High-Performance Quantum     |
  |  Chemistry Software Program with Strengths in Life and Materials   |
  |  Sciences", Int. J. Quantum Chem., 2013, 113(18), 2110-2142.       |
  +--------------------------------------------------------------------+
  
  start of program pre
  
  Job name: alde
  Executables used: /groups/wag/programs/Schrodinger_2020_3/jaguar-v10.9/bin/Linux-x86_64
  Temporary files : /central/scratch/musgrave/pkozlows/alde#hpc-89-08-0-643f5a13
  Maestro file (input):  alde.mae
  Maestro file (output): alde.01.mae
  
 Contents of input file: &gen section only
 ----------------Contents start----------------
&gen
basis=6-31G**
igeopt=1
dftname=PBE-D3
ifreq=1
&
 -----------------Contents end-----------------
 
  basis set:             6-31g**                         
  net molecular charge:    0
  multiplicity:            1
  
  Using up to   8 threads per process
  
  number of basis functions....          130
  
 Input geometry:
                                   angstroms
  atom               x                 y                 z
  O1           -0.7438322358     -1.0204846378      1.7748961230 
  C3           -0.9864131870     -1.6074796956      2.8261088295 
  C5            0.1381386285     -2.2646267205      3.6195074002 
  C7           -0.3712104279     -2.9446573142      4.9000397285 
  H5            0.6316453182     -2.9915110520      2.9741746476 
  H6            0.8758667304     -1.5000059958      3.8633853216 
  C10           0.7481688535     -3.5958482319      5.6848685410 
  H8           -0.8674241200     -2.2156737359      5.5431993625 
  H9           -1.1117309235     -3.7077002919      4.6536777790 
  C13           0.5668347837     -4.2542355587      6.8390086334 
  H11          -1.9874329671     -1.6957574291      3.2491099936 
  H12           1.3997786854     -4.7022247553      7.3616692689 
  H13          -0.4144876016     -4.3562583687      7.2796550262 
  H14           1.7465304156     -3.5157016625      5.2762361497 
   
  principal moments of inertia:
        amu*angstrom^2:       22.80917      397.53472      414.14375
                g*cm^2: 3.78755065E-39 6.60121858E-38 6.87701783E-38
   
  rotational constants:
               cm^(-1):      0.73907258      0.04240543      0.04070478
                   GHz:     22.15683847      1.27128267      1.22029854
   
  Molecular weight:      84.06 amu
   
  Stoichiometry: C5H8O
  Molecular Point Group: Cs      
	Molecule translated to center of mass 
	Molecule reoriented along symmetry axes
  Point Group used: Cs
  
 
Number of optimization coordinates:    36
Number of independent coordinates:     36
Number of non-redundant coordinates:   36
Number of frozen coordinates:           0
Number of harmonic constraints:         0
 
Number of geometric degrees of freedom:    36
Maximum geometric degrees of freedom:      36
 " " " " " excluding dummy atoms:          36
 
  
 Symmetrized geometry:
                                   angstroms
  atom               x                 y                 z
  O1            0.8637050397      2.8454161792      0.0000000000 
  C3            1.0082456409      1.6257584876      0.0000000000 
  C5           -0.2077155398      0.7052267405      0.0000000000 
  C7            0.1850537229     -0.7804964571      0.0000000000 
  H5           -0.8121936026      0.9381184614      0.8767734961 
  H6           -0.8121936026      0.9381184614     -0.8767734961 
  C10          -1.0248404552     -1.6910852388      0.0000000000 
  H8            0.7925424296     -1.0106864771     -0.8770800570 
  H9            0.7925424296     -1.0106864771      0.8770800570 
  C13          -0.9522780863     -3.0301632696      0.0000000000 
  H11           1.9818452741      1.1349761557      0.0000000000 
  H12          -1.8466659045     -3.6365743795      0.0000000000 
  H13          -0.0003380480     -3.5414182791      0.0000000000 
  H14          -1.9971307171     -1.2169741136      0.0000000000 
   
  nuclear repulsion energy.......     209.983790935 hartrees
 
 Non-default options chosen:
   SCF calculation type: DFT(pbe-d3)                 
   DFT=PBE(X+LC)+PW91 (PBE-D3)
   Geometry will be optimized in redundant internal coordinates
   Vibrational frequencies and related properties will be computed
      from analytic second derivatives
   IR intensities will be computed
   Thermochemical properties will be computed
   Scaling standard convergence criteria by a factor of   1.00
  
 Temporary integer options set:
     73=  2
  
  Peak memory usage:   2759 Mb
  
  end of program pre
   
 Time(pre)  user:        7.4  user+sys:        7.4  wallclock:        2.8
  
  start of program onee
  
  smallest eigenvalue of S:    3.033E-03
  number of canonical orbitals.....          130
  Peak memory usage:   2715 Mb
  
  end of program onee
   
 Time(onee)  user:        2.3  user+sys:        2.3  wallclock:        0.4
  
  start of program hfig
  
  initial wavefunction generated automatically from atomic wavefunctions
 
  Irreducible     Total no   No of occupied orbitals 
  representation  orbitals   Shell_1  Shell_2    ...
  Ap                92         19
  App               38          4
  ------------------------
  Orbital occupation/shell    1.000
 
  Peak memory usage:   2672 Mb
  
  end of program hfig
   
 Time(hfig)  user:        2.1  user+sys:        2.1  wallclock:        0.4
  
  start of program probe
  
  Peak memory usage:   2665 Mb
  
  end of program probe
   
 Time(probe)  user:        2.2  user+sys:        2.2  wallclock:        0.4
  
  start of program grid
  
   grid     grid set  grid #  grid sym
  ------    --------  ------  --------
  coarse        0        0        1
  medium        2        1        2
  fine          0        0        1
  ultrafine     4        2        2
  charge        0        0        1
  gradient      4        2        2
  density       0        0        1
  DFT-fine    -11        3        2
  DFT-med.    -10        4        2
  DFT-grad    -12        5        2
  DFT-der2     -8        6        2
  DFT-cphf     -9        7        2
  LMP2-enrg     4        2        2
  LMP2-grad     2        1        2
  DFT-cphf2   -15        8        2
  PBF-dens      0        0        1
  plotting      0        0        1
  Rel-grad    -17        0        1
  
  number of gridpoints: 
     atom        O1       C3       C5       C7       H5       H6      C10
  grid # 1       74       54       53       53      109        0       55
  grid # 2      300      186      172      171      440        0      192
  grid # 3     2430     2430     2430     2430     4304        0     2430
  grid # 4      756      756      756      756     1192        0      756
  grid # 5     3001     3001     3001     3001     5226        0     3001
  grid # 6    12534     6859     6859     6859    13718        0     6859
  grid # 7      441      426      426      426      744        0      426
  grid # 8      234      229      229      229      382        0      229
   
  number of gridpoints: 
     atom        H8       H9      C13      H11      H12      H13      H14
  grid # 1        0      109       50       67       69       68       67
  grid # 2        0      437      178      264      268      267      260
  grid # 3        0     4304     2430     2430     2430     2430     2430
  grid # 4        0     1192      756      756      756      756      756
  grid # 5        0     5226     3001     3001     3001     3001     3001
  grid # 6        0    13718     6859     7413     7413     7413     7413
  grid # 7        0      744      426      464      464      464      464
  grid # 8        0      382      229      245      245      245      245
   
  number of gridpoints: 
     atom     total
  grid # 1      828
  grid # 2     3135
  grid # 3    32908
  grid # 4     9944
  grid # 5    40462
  grid # 6   103917
  grid # 7     5915
  grid # 8     3123
   
  Peak memory usage:   2638 Mb
  
  end of program grid
   
 Time(grid)  user:        4.4  user+sys:        4.4  wallclock:        0.8
  
  start of program rwr
  
  Peak memory usage:   2686 Mb
  
  end of program rwr
   
 Time(rwr)  user:        5.1  user+sys:        5.1  wallclock:        0.8
  
  start of program scf
  
 number of electrons..........         46
 number of alpha electrons....         23
 number of beta electrons.....         23
 number of orbitals, total....        130
 number of doubly-occ'd orbs..         23
 number of open shell orbs....          0
 number of occupied orbitals..         23
 number of virtual orbitals...        107
 number of hamiltonians.......          1
 number of shells.............          1
 SCF type: DFT=PBE(X+LC)+PW91 (PBE-D3)
 Energy computed with NOPS off.
 Convergence Criterion:
    Energy (econv):       1.00E-05
    RMS density (dconv):  5.00E-06
  
       i  u  d  i  g                   
       t  p  i  c  r                                 RMS    maximum
       e  d  i  u  i                       energy  density   DIIS  
       r  t  s  t  d       total energy    change  change    error 
  
  WARNING : Population by symmetry has changed 
etot    1  N  N  5  M    -269.24699721993           1.2E-02  1.9E-01
  WARNING : Population by symmetry has changed 
etot    2  Y  Y  6  M    -267.24817950215 -2.0E+00  1.5E-02  2.3E-01
etot    3  Y  Y  6  M    -267.23521151647 -1.3E-02  1.1E-02  2.4E-01
etot    4  N  Y  2  U    -269.98198466798  2.7E+00  4.6E-03  9.1E-02
etot    5  Y  Y  6  M    -270.11301545614  1.3E-01  2.2E-03  3.8E-02
etot    6  N  Y  2  U    -270.17659374030  6.4E-02  7.7E-04  1.6E-02
etot    7  Y  Y  6  M    -270.18088882597  4.3E-03  4.4E-04  8.9E-03
etot    8  Y  Y  6  M    -270.18358171251  2.7E-03  2.9E-04  6.7E-03
etot    9  N  Y  2  U    -270.18466774817  1.1E-03  1.3E-04  3.7E-03
etot   10  Y  Y  6  M    -270.18491197123  2.4E-04  8.5E-05  1.7E-03
etot   11  Y  Y  6  M    -270.18497382010  6.2E-05  1.4E-05  1.4E-04
etot   12  N  Y  2  U    -270.18497551215  1.7E-06  4.1E-06  3.7E-05
etot   13  N  N  2  U    -270.18497558690  7.5E-08  0.0E+00  0.0E+00
 
  Computing the dispersion energy correction and its gradients...
  
  
 Energy components, in hartrees:
   (A)  Nuclear repulsion............     209.98379093473
   (E)  Total one-electron terms.....    -780.87804389023
   (I)  Total two-electron terms.....     300.70927736860
   (J)    Coulomb....................     338.98666423404
   (K)    Exchange+Correlation.......     -38.27738686544
   (L)  Electronic energy............    -480.16876652164  (E+I)
   (N0) D3 correction................      -0.00448555868
   (N)  Total energy.................    -270.18946114558  (A+L+N0)
   (O)  Gas phase energy.............    -270.18946114558
  
 SCFE: SCF energy: DFT(pbe-d3)      -270.18946114558 hartrees   iterations:  13
  
 
 HOMO energy:    -0.20172
 LUMO energy:    -0.06970
 
  Orbital energies (hartrees)/symmetry label: 
   -18.77186 Ap         -9.98468 Ap         -9.91048 Ap         -9.90964 Ap     
    -9.90674 Ap         -9.89216 Ap         -0.94587 Ap         -0.73816 Ap     
    -0.67805 Ap         -0.59037 Ap         -0.52959 Ap         -0.49980 Ap     
    -0.42532 App        -0.41940 Ap         -0.40059 Ap         -0.37849 Ap     
    -0.35365 App        -0.35259 Ap         -0.32119 Ap         -0.30692 App    
    -0.30346 Ap         -0.22372 App        -0.20172 Ap         -0.06970 App    
    -0.02185 App         0.08138 Ap          0.08537 Ap          0.09966 Ap     
     0.11409 Ap          0.11807 App         0.13248 Ap          0.16327 Ap     
     0.18321 App    
 
  Peak memory usage:   3782 Mb
  
  end of program scf
   
 Time(scf)  user:       16.7  user+sys:       16.7  wallclock:        4.3
  
  start of program der1a
  
  Peak memory usage:   2674 Mb
  
  end of program der1a
   
 Time(der1a)  user:        2.2  user+sys:        2.2  wallclock:        0.4
  
  start of program rwr
  
  Peak memory usage:   2700 Mb
  
  end of program rwr
   
 Time(rwr)  user:        5.0  user+sys:        5.0  wallclock:        0.8
  
  start of program der1b
  
   
  forces (hartrees/bohr) : total     
   
 atom  label           x              y              z
 ---- --------   -------------  -------------  -------------
    1 O1          1.098333E-02  -8.198607E-03   1.050379E-21
    2 C3         -3.565825E-02   2.148549E-02  -1.485746E-21
    3 C5          2.041658E-02  -1.271131E-02   3.245783E-21
    4 C7         -1.640430E-02   2.707985E-03  -9.143051E-23
    5 H5         -5.517306E-03   3.722363E-03   6.962535E-03
    6 H6         -5.517306E-03   3.722363E-03  -6.962535E-03
    7 C10         1.055422E-02  -7.603682E-03   5.840124E-21
    8 H8          6.772639E-03  -3.261532E-04  -6.662961E-03
    9 H9          6.772639E-03  -3.261532E-04   6.662961E-03
   10 C13        -3.760196E-03   9.809040E-03   0.000000E+00
   11 H11         1.949727E-02  -5.910289E-03   0.000000E+00
   12 H12        -6.519629E-03  -6.005191E-03   0.000000E+00
   13 H13         8.482787E-03  -5.830031E-03   0.000000E+00
   14 H14        -9.916910E-03   4.995584E-03   0.000000E+00
 -------------   -------------  -------------  -------------
     total        1.855890E-04  -4.685890E-04   0.000000E+00
   
  Peak memory usage:   3667 Mb
  
  end of program der1b
   
 Time(der1b)  user:        4.5  user+sys:        4.5  wallclock:        0.8
  
  start of program geopt
  
 ----------------------------------------------------------------------------
  Geometry optimization step   1
  Total energy:      -270.18946114558 hartrees
 ----------------------------------------------------------------------------
  
  gradient maximum:        2.3162E-02 .  (  4.5000E-04 )
  gradient rms:            7.2523E-03 .  (  3.0000E-04 )
  displacement maximum:    5.8238E-02 .  (  1.8000E-03 )
  displacement rms:        2.2108E-02 .  (  1.2000E-03 )
  
  predicted energy change:  -2.6618E-03
  step size:     0.13265
  trust radius:  0.30000
  
  molecular structure not yet converged...
  
  center of mass moved by:
     x:     4.2914E-03     y:     3.9128E-03     z:     0.0000E+00
  
  new geometry: 
                                   angstroms
  atom               x                 y                 z
  O1            0.8950621429      2.8677057741      0.0000000000 
  C3            0.9927349832      1.6505420537      0.0000000000 
  C5           -0.2048563452      0.7049671338      0.0000000000 
  C7            0.1764813961     -0.7861543437      0.0000000000 
  H5           -0.8206619911      0.9515718425      0.8832135964 
  H6           -0.8206619911      0.9515718425     -0.8832135964 
  C10          -1.0304620118     -1.7131592110      0.0000000000 
  H8            0.8047457130     -1.0039488051     -0.8832386716 
  H9            0.8047457130     -1.0039488051      0.8832386716 
  C13          -0.9652709388     -3.0546878902      0.0000000000 
  H11           2.0006544736      1.1598386009      0.0000000000 
  H12          -1.8703912854     -3.6684649486      0.0000000000 
  H13          -0.0051944675     -3.5825268322      0.0000000000 
  H14          -2.0181412807     -1.2327652260      0.0000000000 
   
  nuclear repulsion energy.......     208.607051712 hartrees
  -------------------------------------------------
 /  end of geometry optimization iteration   1   /
 -------------------------------------------------
   
  Peak memory usage:   2567 Mb
  
  end of program geopt
   
 Time(geopt)  user:        2.6  user+sys:        2.6  wallclock:        0.5
  
  start of program onee
  
  smallest eigenvalue of S:    3.152E-03
  number of canonical orbitals.....          130
  Peak memory usage:   2715 Mb
  
  end of program onee
   
 Time(onee)  user:        2.1  user+sys:        2.1  wallclock:        0.4
  
  start of program probe
  
  Peak memory usage:   2665 Mb
  
  end of program probe
   
 Time(probe)  user:        1.7  user+sys:        1.7  wallclock:        0.4
  
  start of program grid
  
   grid     grid set  grid #  grid sym
  ------    --------  ------  --------
  coarse        0        0        1
  medium        2        1        2
  fine          0        0        1
  ultrafine     4        2        2
  charge        0        0        1
  gradient      4        2        2
  density       0        0        1
  DFT-fine    -11        3        2
  DFT-med.    -10        4        2
  DFT-grad    -12        5        2
  DFT-der2     -8        6        2
  DFT-cphf     -9        7        2
  LMP2-enrg     4        2        2
  LMP2-grad     2        1        2
  DFT-cphf2   -15        8        2
  PBF-dens      0        0        1
  plotting      0        0        1
  Rel-grad    -17        0        1
  
  number of gridpoints: 
     atom        O1       C3       C5       C7       H5       H6      C10
  grid # 1       73       54       53       53      110        0       55
  grid # 2      299      187      171      174      442        0      193
  grid # 3     2430     2430     2430     2430     4304        0     2430
  grid # 4      756      756      756      756     1192        0      756
  grid # 5     3001     3001     3001     3001     5226        0     3001
  grid # 6    12534     6859     6859     6859    13718        0     6859
  grid # 7      441      426      426      426      744        0      426
  grid # 8      234      229      229      229      382        0      229
   
  number of gridpoints: 
     atom        H8       H9      C13      H11      H12      H13      H14
  grid # 1        0      109       50       67       69       68       67
  grid # 2        0      438      180      267      268      267      260
  grid # 3        0     4304     2430     2430     2430     2430     2430
  grid # 4        0     1192      756      756      756      756      756
  grid # 5        0     5226     3001     3001     3001     3001     3001
  grid # 6        0    13718     6859     7413     7413     7413     7413
  grid # 7        0      744      426      464      464      464      464
  grid # 8        0      382      229      245      245      245      245
   
  number of gridpoints: 
     atom     total
  grid # 1      828
  grid # 2     3146
  grid # 3    32908
  grid # 4     9944
  grid # 5    40462
  grid # 6   103917
  grid # 7     5915
  grid # 8     3123
   
  Peak memory usage:   2638 Mb
  
  end of program grid
   
 Time(grid)  user:        3.7  user+sys:        3.7  wallclock:        0.7
  
  start of program rwr
  
  Peak memory usage:   2686 Mb
  
  end of program rwr
   
 Time(rwr)  user:        4.6  user+sys:        4.6  wallclock:        0.7
  
  start of program scf
  
 Energy computed with NOPS off.
 Convergence Criterion:
    Energy (econv):       1.00E-05
    RMS density (dconv):  5.00E-06
  
       i  u  d  i  g                   
       t  p  i  c  r                                 RMS    maximum
       e  d  i  u  i                       energy  density   DIIS  
       r  t  s  t  d       total energy    change  change    error 
  
etot    1  N  N  2  U    -270.18650239768           5.2E-04  3.9E-03
etot    2  Y  Y  6  M    -270.18745805568  9.6E-04  2.4E-04  2.5E-03
etot    3  Y  Y  6  M    -270.18714119556 -3.2E-04  1.7E-04  5.5E-03
etot    4  Y  Y  6  M    -270.18761686127  4.8E-04  4.1E-05  8.4E-04
etot    5  N  Y  2  U    -270.18772611438  1.1E-04  1.2E-05  1.2E-04
etot    6  N  Y  2  U    -270.18772686623  7.5E-07  4.7E-06  5.0E-05
etot    7  N  N  2  U    -270.18772694711  8.1E-08  0.0E+00  0.0E+00
 
  Computing the dispersion energy correction and its gradients...
  
  
 Energy components, in hartrees:
   (A)  Nuclear repulsion............     208.60705171249
   (E)  Total one-electron terms.....    -778.13237196717
   (I)  Total two-electron terms.....     299.33759330756
   (J)    Coulomb....................     337.56472336233
   (K)    Exchange+Correlation.......     -38.22713005477
   (L)  Electronic energy............    -478.79477865960  (E+I)
   (N0) D3 correction................      -0.00447245257
   (N)  Total energy.................    -270.19219939968  (A+L+N0)
   (O)  Gas phase energy.............    -270.19219939968
  
 SCFE: SCF energy: DFT(pbe-d3)      -270.19219939968 hartrees   iterations:   7
  
 
 HOMO energy:    -0.20287
 LUMO energy:    -0.06755
 
  Orbital energies (hartrees)/symmetry label: 
   -18.77295 Ap         -9.98703 Ap         -9.91629 Ap         -9.91530 Ap     
    -9.91111 Ap         -9.89718 Ap         -0.94992 Ap         -0.73619 Ap     
    -0.67794 Ap         -0.59037 Ap         -0.52220 Ap         -0.49709 Ap     
    -0.42286 App        -0.41922 Ap         -0.39911 Ap         -0.37950 Ap     
    -0.35308 App        -0.35295 Ap         -0.32266 Ap         -0.30726 App    
    -0.30270 Ap         -0.22486 App        -0.20287 Ap         -0.06755 App    
    -0.02337 App         0.07670 Ap          0.08258 Ap          0.09604 Ap     
     0.10845 Ap          0.11275 App         0.12682 Ap          0.15611 Ap     
     0.17813 App    
 
  Peak memory usage:   3782 Mb
  
  end of program scf
   
 Time(scf)  user:       12.3  user+sys:       12.3  wallclock:        3.5
  
  start of program der1a
  
  Peak memory usage:   2674 Mb
  
  end of program der1a
   
 Time(der1a)  user:        2.2  user+sys:        2.2  wallclock:        0.4
  
  start of program rwr
  
  Peak memory usage:   2594 Mb
  
  end of program rwr
   
 Time(rwr)  user:        4.9  user+sys:        4.9  wallclock:        0.8
  
  start of program der1b
  
   
  forces (hartrees/bohr) : total     
   
 atom  label           x              y              z
 ---- --------   -------------  -------------  -------------
    1 O1          3.916385E-05  -1.807642E-03  -1.084844E-22
    2 C3         -4.765645E-03   2.705363E-03   1.657178E-21
    3 C5          4.300675E-03  -3.322489E-03  -1.828610E-22
    4 C7         -4.335183E-03   6.167099E-04   1.828610E-22
    5 H5         -1.053557E-03   7.876773E-04   1.448833E-04
    6 H6         -1.053557E-03   7.876773E-04  -1.448833E-04
    7 C10         2.934951E-03  -4.950249E-04   0.000000E+00
    8 H8          8.105600E-04   7.531535E-05  -8.620575E-05
    9 H9          8.105600E-04   7.531535E-05   8.620575E-05
   10 C13        -3.011382E-04   2.723984E-03   0.000000E+00
   11 H11         2.567331E-03  -2.222218E-03   0.000000E+00
   12 H12         4.969448E-04  -2.403652E-04   0.000000E+00
   13 H13        -2.147016E-04  -5.245480E-04   0.000000E+00
   14 H14        -4.432647E-05   3.498709E-04   0.000000E+00
 -------------   -------------  -------------  -------------
     total        1.920767E-04  -4.903739E-04   2.710505E-20
   
  Peak memory usage:   3669 Mb
  
  end of program der1b
   
 Time(der1b)  user:        4.4  user+sys:        4.4  wallclock:        0.8
  
  start of program geopt
  
 ----------------------------------------------------------------------------
  Geometry optimization step   2
  Total energy:      -270.19219939968 hartrees
 ----------------------------------------------------------------------------
  
  energy change:          -2.7383E-03 .  (  5.0000E-05 )
  gradient maximum:        3.3788E-03 .  (  4.5000E-04 )
  gradient rms:            1.3101E-03 .  (  3.0000E-04 )
  displacement maximum:    1.3805E-02 .  (  1.8000E-03 )
  displacement rms:        5.6236E-03 .  (  1.2000E-03 )
  
  predicted energy change:  -1.1966E-04
  step size:     0.03374
  trust radius:  0.30000
  
  molecular structure not yet converged...
  
  center of mass moved by:
     x:    -5.8250E-04     y:    -3.2651E-03     z:     0.0000E+00
  
  new geometry: 
                                   angstroms
  atom               x                 y                 z
  O1            0.8940420754      2.8596421291      0.0000000000 
  C3            0.9861571443      1.6437402672      0.0000000000 
  C5           -0.2069292254      0.7013890382      0.0000000000 
  C7            0.1759509830     -0.7825489498      0.0000000000 
  H5           -0.8268810284      0.9531517351      0.8814367936 
  H6           -0.8268810284      0.9531517351     -0.8814367936 
  C10          -1.0240510111     -1.7065968193      0.0000000000 
  H8            0.8092432150     -0.9965381583     -0.8823112652 
  H9            0.8092432150     -0.9965381583      0.8823112652 
  C13          -0.9615056960     -3.0456993660      0.0000000000 
  H11           1.9967657524      1.1426663100      0.0000000000 
  H12          -1.8669593243     -3.6590567167      0.0000000000 
  H13          -0.0037310863     -3.5788713232      0.0000000000 
  H14          -2.0113642382     -1.2231612773      0.0000000000 
   
  nuclear repulsion energy.......     209.091667861 hartrees
  -------------------------------------------------
 /  end of geometry optimization iteration   2   /
 -------------------------------------------------
   
  Peak memory usage:   2595 Mb
  
  end of program geopt
   
 Time(geopt)  user:        2.4  user+sys:        2.4  wallclock:        0.5
  
  start of program onee
  
  smallest eigenvalue of S:    3.071E-03
  number of canonical orbitals.....          130
  Peak memory usage:   2715 Mb
  
  end of program onee
   
 Time(onee)  user:        2.1  user+sys:        2.1  wallclock:        0.4
  
  start of program probe
  
  Peak memory usage:   2665 Mb
  
  end of program probe
   
 Time(probe)  user:        1.8  user+sys:        1.8  wallclock:        0.4
  
  start of program grid
  
   grid     grid set  grid #  grid sym
  ------    --------  ------  --------
  coarse        0        0        1
  medium        2        1        2
  fine          0        0        1
  ultrafine     4        2        2
  charge        0        0        1
  gradient      4        2        2
  density       0        0        1
  DFT-fine    -11        3        2
  DFT-med.    -10        4        2
  DFT-grad    -12        5        2
  DFT-der2     -8        6        2
  DFT-cphf     -9        7        2
  LMP2-enrg     4        2        2
  LMP2-grad     2        1        2
  DFT-cphf2   -15        8        2
  PBF-dens      0        0        1
  plotting      0        0        1
  Rel-grad    -17        0        1
  
  number of gridpoints: 
     atom        O1       C3       C5       C7       H5       H6      C10
  grid # 1       73       54       53       53      110        0       55
  grid # 2      299      188      169      173      442        0      192
  grid # 3     2430     2430     2430     2430     4304        0     2430
  grid # 4      756      756      756      756     1192        0      756
  grid # 5     3001     3001     3001     3001     5226        0     3001
  grid # 6    12534     6859     6859     6859    13718        0     6859
  grid # 7      441      426      426      426      744        0      426
  grid # 8      234      229      229      229      382        0      229
   
  number of gridpoints: 
     atom        H8       H9      C13      H11      H12      H13      H14
  grid # 1        0      108       50       67       69       68       67
  grid # 2        0      438      179      267      268      267      260
  grid # 3        0     4304     2430     2430     2430     2430     2430
  grid # 4        0     1192      756      756      756      756      756
  grid # 5        0     5226     3001     3001     3001     3001     3001
  grid # 6        0    13718     6859     7413     7413     7413     7413
  grid # 7        0      744      426      464      464      464      464
  grid # 8        0      382      229      245      245      245      245
   
  number of gridpoints: 
     atom     total
  grid # 1      827
  grid # 2     3142
  grid # 3    32908
  grid # 4     9944
  grid # 5    40462
  grid # 6   103917
  grid # 7     5915
  grid # 8     3123
   
  Peak memory usage:   2638 Mb
  
  end of program grid
   
 Time(grid)  user:        3.7  user+sys:        3.7  wallclock:        0.7
  
  start of program rwr
  
  Peak memory usage:   2686 Mb
  
  end of program rwr
   
 Time(rwr)  user:        5.0  user+sys:        5.0  wallclock:        0.8
  
  start of program scf
  
 Energy computed with NOPS off.
 Convergence Criterion:
    Energy (econv):       1.00E-05
    RMS density (dconv):  5.00E-06
  
       i  u  d  i  g                   
       t  p  i  c  r                                 RMS    maximum
       e  d  i  u  i                       energy  density   DIIS  
       r  t  s  t  d       total energy    change  change    error 
  
etot    1  N  N  2  U    -270.18776888247           1.1E-04  6.9E-04
etot    2  Y  Y  6  M    -270.18783382680  6.5E-05  3.3E-05  3.5E-04
etot    3  N  Y  2  U    -270.18781866803 -1.5E-05  2.7E-05  8.5E-04
etot    4  N  Y  2  U    -270.18783175323  1.3E-05  8.0E-06  1.6E-04
etot    5  N  Y  2  U    -270.18783227752  5.2E-07  2.6E-06  5.3E-05
etot    6  N  N  2  U    -270.18783234325  6.6E-08  0.0E+00  0.0E+00
 
  Computing the dispersion energy correction and its gradients...
  
  
 Energy components, in hartrees:
   (A)  Nuclear repulsion............     209.09166786057
   (E)  Total one-electron terms.....    -779.08709760546
   (I)  Total two-electron terms.....     299.80759740164
   (J)    Coulomb....................     338.04013794395
   (K)    Exchange+Correlation.......     -38.23254054231
   (L)  Electronic energy............    -479.27950020382  (E+I)
   (N0) D3 correction................      -0.00447692667
   (N)  Total energy.................    -270.19230926993  (A+L+N0)
   (O)  Gas phase energy.............    -270.19230926993
  
 SCFE: SCF energy: DFT(pbe-d3)      -270.19230926993 hartrees   iterations:   6
  
 
 HOMO energy:    -0.20296
 LUMO energy:    -0.06719
 
  Orbital energies (hartrees)/symmetry label: 
   -18.77287 Ap         -9.98698 Ap         -9.91593 Ap         -9.91511 Ap     
    -9.91083 Ap         -9.89668 Ap         -0.95078 Ap         -0.73822 Ap     
    -0.67893 Ap         -0.59091 Ap         -0.52197 Ap         -0.49663 Ap     
    -0.42323 App        -0.42003 Ap         -0.39947 Ap         -0.37971 Ap     
    -0.35351 Ap         -0.35317 App        -0.32357 Ap         -0.30671 App    
    -0.30297 Ap         -0.22508 App        -0.20296 Ap         -0.06719 App    
    -0.02310 App         0.07578 Ap          0.08260 Ap          0.09596 Ap     
     0.10819 Ap          0.11141 App         0.12640 Ap          0.15746 Ap     
     0.17854 App    
 
  Peak memory usage:   3786 Mb
  
  end of program scf
   
 Time(scf)  user:       12.6  user+sys:       12.6  wallclock:        3.5
  
  start of program der1a
  
  Peak memory usage:   2674 Mb
  
  end of program der1a
   
 Time(der1a)  user:        2.3  user+sys:        2.3  wallclock:        0.5
  
  start of program rwr
  
  Peak memory usage:   2594 Mb
  
  end of program rwr
   
 Time(rwr)  user:        4.5  user+sys:        4.5  wallclock:        0.7
  
  start of program der1b
  
   
  forces (hartrees/bohr) : total     
   
 atom  label           x              y              z
 ---- --------   -------------  -------------  -------------
    1 O1         -2.870451E-05   4.641943E-04   2.625056E-23
    2 C3          3.019959E-04   1.599678E-04   2.000042E-22
    3 C5          3.686865E-04  -2.221925E-04   2.651485E-21
    4 C7         -3.668122E-04  -8.559488E-06  -2.925776E-21
    5 H5         -1.974922E-04   6.995086E-05  -3.278666E-04
    6 H6         -1.974922E-04   6.995086E-05   3.278666E-04
    7 C10        -6.853373E-05   3.552126E-04   5.851553E-21
    8 H8          1.901712E-04   1.317067E-05   2.618306E-04
    9 H9          1.901712E-04   1.317067E-05  -2.618306E-04
   10 C13        -2.082249E-04  -7.584343E-04   0.000000E+00
   11 H11        -1.476768E-04  -2.239207E-04   0.000000E+00
   12 H12         3.360504E-04  -1.129951E-04   0.000000E+00
   13 H13        -2.895723E-04  -6.644551E-05   0.000000E+00
   14 H14         3.059048E-04  -2.576803E-04   0.000000E+00
 -------------   -------------  -------------  -------------
     total        1.884712E-04  -5.046101E-04   5.421011E-20
   
  Peak memory usage:   3669 Mb
  
  end of program der1b
   
 Time(der1b)  user:        4.1  user+sys:        4.1  wallclock:        0.8
  
  start of program geopt
  
 ----------------------------------------------------------------------------
  Geometry optimization step   3
  Total energy:      -270.19230926993 hartrees
 ----------------------------------------------------------------------------
  
  energy change:          -1.0987E-04 .  (  5.0000E-05 )
  gradient maximum:        8.0907E-04 .  (  4.5000E-04 )
  gradient rms:            3.4632E-04 .  (  3.0000E-04 )
  displacement maximum:    5.0746E-03 .  (  1.8000E-03 )
  displacement rms:        1.6217E-03 .  (  1.2000E-03 )
  
  predicted energy change:  -7.5722E-06
  step size:     0.00973
  trust radius:  0.30000
  
  molecular structure not yet converged...
  
  center of mass moved by:
     x:     7.7802E-04     y:     5.6403E-04     z:     0.0000E+00
  
  new geometry: 
                                   angstroms
  atom               x                 y                 z
  O1            0.8959613123      2.8613015298      0.0000000000 
  C3            0.9864077371      1.6450357896      0.0000000000 
  C5           -0.2071329786      0.7024721769      0.0000000000 
  C7            0.1748281183     -0.7822415785      0.0000000000 
  H5           -0.8286625085      0.9556607974      0.8798206454 
  H6           -0.8286625085      0.9556607974     -0.8798206454 
  C10          -1.0240144873     -1.7084846642      0.0000000000 
  H8            0.8100277495     -0.9954117031     -0.8810019824 
  H9            0.8100277495     -0.9954117031      0.8810019824 
  C13          -0.9625544715     -3.0483769104      0.0000000000 
  H11           1.9959760396      1.1410146785      0.0000000000 
  H12          -1.8675986566     -3.6617549116      0.0000000000 
  H13          -0.0060996884     -3.5830751255      0.0000000000 
  H14          -2.0111676282     -1.2258373971      0.0000000000 
   
  nuclear repulsion energy.......     209.000028521 hartrees
  -------------------------------------------------
 /  end of geometry optimization iteration   3   /
 -------------------------------------------------
   
  Peak memory usage:   2567 Mb
  
  end of program geopt
   
 Time(geopt)  user:        2.7  user+sys:        2.7  wallclock:        0.5
  
  start of program onee
  
  smallest eigenvalue of S:    3.084E-03
  number of canonical orbitals.....          130
  Peak memory usage:   2715 Mb
  
  end of program onee
   
 Time(onee)  user:        2.3  user+sys:        2.3  wallclock:        0.4
  
  start of program probe
  
  Peak memory usage:   2665 Mb
  
  end of program probe
   
 Time(probe)  user:        1.8  user+sys:        1.8  wallclock:        0.4
  
  start of program grid
  
   grid     grid set  grid #  grid sym
  ------    --------  ------  --------
  coarse        0        0        1
  medium        2        1        2
  fine          0        0        1
  ultrafine     4        2        2
  charge        0        0        1
  gradient      4        2        2
  density       0        0        1
  DFT-fine    -11        3        2
  DFT-med.    -10        4        2
  DFT-grad    -12        5        2
  DFT-der2     -8        6        2
  DFT-cphf     -9        7        2
  LMP2-enrg     4        2        2
  LMP2-grad     2        1        2
  DFT-cphf2   -15        8        2
  PBF-dens      0        0        1
  plotting      0        0        1
  Rel-grad    -17        0        1
  
  number of gridpoints: 
     atom        O1       C3       C5       C7       H5       H6      C10
  grid # 1       73       54       53       53      110        0       55
  grid # 2      299      190      171      174      442        0      192
  grid # 3     2430     2430     2430     2430     4304        0     2430
  grid # 4      756      756      756      756     1192        0      756
  grid # 5     3001     3001     3001     3001     5226        0     3001
  grid # 6    12534     6859     6859     6859    13718        0     6859
  grid # 7      441      426      426      426      744        0      426
  grid # 8      234      229      229      229      382        0      229
   
  number of gridpoints: 
     atom        H8       H9      C13      H11      H12      H13      H14
  grid # 1        0      108       50       67       69       68       67
  grid # 2        0      438      179      267      268      267      260
  grid # 3        0     4304     2430     2430     2430     2430     2430
  grid # 4        0     1192      756      756      756      756      756
  grid # 5        0     5226     3001     3001     3001     3001     3001
  grid # 6        0    13718     6859     7413     7413     7413     7413
  grid # 7        0      744      426      464      464      464      464
  grid # 8        0      382      229      245      245      245      245
   
  number of gridpoints: 
     atom     total
  grid # 1      827
  grid # 2     3147
  grid # 3    32908
  grid # 4     9944
  grid # 5    40462
  grid # 6   103917
  grid # 7     5915
  grid # 8     3123
   
  Peak memory usage:   2638 Mb
  
  end of program grid
   
 Time(grid)  user:        4.0  user+sys:        4.0  wallclock:        0.7
  
  start of program rwr
  
  Peak memory usage:   2686 Mb
  
  end of program rwr
   
 Time(rwr)  user:        5.1  user+sys:        5.1  wallclock:        0.8
  
  start of program scf
  
 Energy computed with NOPS off.
 Convergence Criterion:
    Energy (econv):       1.00E-05
    RMS density (dconv):  5.00E-06
  
       i  u  d  i  g                   
       t  p  i  c  r                                 RMS    maximum
       e  d  i  u  i                       energy  density   DIIS  
       r  t  s  t  d       total energy    change  change    error 
  
etot    1  N  N  2  U    -270.18783928738           2.4E-05  1.8E-04
etot    2  N  Y  2  U    -270.18784238376  3.1E-06  7.7E-06  7.7E-05
etot    3  N  Y  2  U    -270.18784184863 -5.4E-07  6.1E-06  1.9E-04
etot    4  N  Y  2  U    -270.18784255035  7.0E-07  1.5E-06  3.0E-05
etot    5  N  N  2  U    -270.18784256409  1.4E-08  0.0E+00  0.0E+00
 
  Computing the dispersion energy correction and its gradients...
  
  
 Energy components, in hartrees:
   (A)  Nuclear repulsion............     209.00002852050
   (E)  Total one-electron terms.....    -778.90190072765
   (I)  Total two-electron terms.....     299.71402964305
   (J)    Coulomb....................     337.94535824821
   (K)    Exchange+Correlation.......     -38.23132860515
   (L)  Electronic energy............    -479.18787108460  (E+I)
   (N0) D3 correction................      -0.00447508912
   (N)  Total energy.................    -270.19231765322  (A+L+N0)
   (O)  Gas phase energy.............    -270.19231765322
  
 SCFE: SCF energy: DFT(pbe-d3)      -270.19231765322 hartrees   iterations:   5
  
 
 HOMO energy:    -0.20312
 LUMO energy:    -0.06731
 
  Orbital energies (hartrees)/symmetry label: 
   -18.77312 Ap         -9.98718 Ap         -9.91608 Ap         -9.91521 Ap     
    -9.91094 Ap         -9.89697 Ap         -0.95076 Ap         -0.73801 Ap     
    -0.67889 Ap         -0.59108 Ap         -0.52207 Ap         -0.49686 Ap     
    -0.42282 App        -0.41997 Ap         -0.39947 Ap         -0.37987 Ap     
    -0.35373 Ap         -0.35300 App        -0.32383 Ap         -0.30657 App    
    -0.30301 Ap         -0.22505 App        -0.20312 Ap         -0.06731 App    
    -0.02329 App         0.07582 Ap          0.08280 Ap          0.09601 Ap     
     0.10815 Ap          0.11144 App         0.12638 Ap          0.15730 Ap     
     0.17839 App    
 
  Peak memory usage:   3778 Mb
  
  end of program scf
   
 Time(scf)  user:       11.5  user+sys:       11.5  wallclock:        3.3
  
  start of program der1a
  
  Peak memory usage:   2674 Mb
  
  end of program der1a
   
 Time(der1a)  user:        2.0  user+sys:        2.0  wallclock:        0.4
  
  start of program rwr
  
  Peak memory usage:   2594 Mb
  
  end of program rwr
   
 Time(rwr)  user:        5.3  user+sys:        5.3  wallclock:        0.8
  
  start of program der1b
  
   
  forces (hartrees/bohr) : total     
   
 atom  label           x              y              z
 ---- --------   -------------  -------------  -------------
    1 O1         -3.375456E-05  -1.458126E-04   9.651991E-23
    2 C3          2.961415E-04   3.776764E-06  -1.954327E-21
    3 C5         -5.415696E-05  -7.069325E-05  -3.382929E-21
    4 C7         -7.946569E-05   2.815775E-06   0.000000E+00
    5 H5         -3.642607E-05  -4.832953E-05  -3.575825E-05
    6 H6         -3.642607E-05  -4.832953E-05   3.575825E-05
    7 C10         1.263034E-04  -1.601295E-04  -5.714407E-24
    8 H8          3.998074E-05  -3.115519E-05   8.550458E-06
    9 H9          3.998074E-05  -3.115519E-05  -8.550458E-06
   10 C13         3.825162E-05   1.364445E-04   0.000000E+00
   11 H11        -2.002013E-04   8.200812E-05   0.000000E+00
   12 H12         5.172594E-05  -4.566078E-05   0.000000E+00
   13 H13         2.428559E-05  -6.296758E-05   0.000000E+00
   14 H14         2.888858E-06  -8.366736E-05   0.000000E+00
 -------------   -------------  -------------  -------------
     total        1.791277E-04  -5.028554E-04  -6.776264E-21
   
  Peak memory usage:   3669 Mb
  
  end of program der1b
   
 Time(der1b)  user:        4.3  user+sys:        4.3  wallclock:        0.8
  
  start of program geopt
  
 ----------------------------------------------------------------------------
  Geometry optimization step   4
  Total energy:      -270.19231765322 hartrees
 ----------------------------------------------------------------------------
  
  energy change:          -8.3833E-06 *  (  5.0000E-05 )
  gradient maximum:        2.1623E-04 *  (  4.5000E-04 )
  gradient rms:            6.7617E-05 *  (  3.0000E-04 )
  displacement maximum:    6.7323E-04 *  (  1.8000E-03 )
  displacement rms:        2.2167E-04 #  (  1.2000E-03 )
  
  predicted energy change:  -2.3137E-07
  step size:     0.00133
  trust radius:  0.30000
  
  ********************************************************
  **           Geometry optimization complete           **
  ********************************************************
  
  Checking the geometry optimization convergence pattern ...
  
  best                    worst
  ==0=====1=====2=====3=====4==
    ^                          
  
  Convergence category 0: monotonic convergence.
  
  center of mass moved by:
     x:     0.0000E+00     y:     0.0000E+00     z:     0.0000E+00
  
  final geometry: 
                                   angstroms
  atom               x                 y                 z
  O1            0.8959613123      2.8613015298      0.0000000000 
  C3            0.9864077371      1.6450357896      0.0000000000 
  C5           -0.2071329786      0.7024721769      0.0000000000 
  C7            0.1748281183     -0.7822415785      0.0000000000 
  H5           -0.8286625085      0.9556607974      0.8798206454 
  H6           -0.8286625085      0.9556607974     -0.8798206454 
  C10          -1.0240144873     -1.7084846642      0.0000000000 
  H8            0.8100277495     -0.9954117031     -0.8810019824 
  H9            0.8100277495     -0.9954117031      0.8810019824 
  C13          -0.9625544715     -3.0483769104      0.0000000000 
  H11           1.9959760396      1.1410146785      0.0000000000 
  H12          -1.8675986566     -3.6617549116      0.0000000000 
  H13          -0.0060996884     -3.5830751255      0.0000000000 
  H14          -2.0111676282     -1.2258373971      0.0000000000 
   
  bond lengths (angstroms):
 O1      -C3      :   1.219624
 C3      -C5      :   1.520844
 C3      -H11     :   1.128391
 C5      -C7      :   1.533059
 C5      -H5      :   1.106566
 C5      -H6      :   1.106566
 C7      -C10     :   1.514975
 C7      -H8      :   1.106835
 C7      -H9      :   1.106835
 C10     -C13     :   1.341301
 C10     -H14     :   1.098827
 C13     -H12     :   1.093315
 C13     -H13     :   1.095768
  
  bond angles:
 C5      -C3      -O1      : 124.045958
 H11     -C3      -O1      : 120.783314
 H11     -C3      -C5      : 115.170728
 C7      -C5      -C3      : 113.871675
 H5      -C5      -C3      : 107.396953
 H5      -C5      -C7      : 111.194270
 H6      -C5      -C3      : 107.396953
 H6      -C5      -C7      : 111.194270
 H6      -C5      -H5      : 105.327731
 C10     -C7      -C5      : 113.262992
 H8      -C7      -C5      : 109.238722
 H8      -C7      -C10     : 109.656679
 H9      -C7      -C5      : 109.238722
 H9      -C7      -C10     : 109.656679
 H9      -C7      -H8      : 105.492953
 C13     -C10     -C7      : 125.063911
 H14     -C10     -C7      : 116.254483
 H14     -C10     -C13     : 118.681606
 H12     -C13     -C10     : 121.500495
 H13     -C13     -C10     : 121.833296
 H13     -C13     -H12     : 116.666209
  
  torsional angles:
 O1      -C3      -C5      -C7      : 180.000000
 O1      -C3      -C5      -H5      : -56.429400
 O1      -C3      -C5      -H6      :  56.429400
 C3      -C5      -C7      -C10     : 180.000000
 C3      -C5      -C7      -H8      : -57.463138
 C3      -C5      -C7      -H9      :  57.463138
 C5      -C7      -C10     -C13     : 180.000000
 C5      -C7      -C10     -H14     :   0.000000
 C7      -C5      -C3      -H11     :   0.000000
 C7      -C10     -C13     -H12     : 180.000000
 C7      -C10     -C13     -H13     :   0.000000
 H5      -C5      -C3      -H11     : 123.570600
 H5      -C5      -C7      -C10     :  58.514539
 H5      -C5      -C7      -H8      :-178.948599
 H5      -C5      -C7      -H9      : -64.022323
 H6      -C5      -C3      -H11     :-123.570600
 H6      -C5      -C7      -C10     : -58.514539
 H6      -C5      -C7      -H8      :  64.022323
 H6      -C5      -C7      -H9      : 178.948599
 H8      -C7      -C10     -C13     :  57.695497
 H8      -C7      -C10     -H14     :-122.304503
 H9      -C7      -C10     -C13     : -57.695497
 H9      -C7      -C10     -H14     : 122.304503
 H12     -C13     -C10     -H14     :   0.000000
 H13     -C13     -C10     -H14     : 180.000000
  
  principal moments of inertia:
        amu*angstrom^2:       22.53114      403.47510      419.75673
                g*cm^2: 3.74138408E-39 6.69986091E-38 6.97022363E-38
   
  rotational constants:
               cm^(-1):      0.74819232      0.04178109      0.04016047
                   GHz:     22.43024139      1.25256553      1.20398071
   
  nuclear repulsion energy.......     209.000028521 hartrees
  -------------------------------------------------
 /  end of geometry optimization iteration   4   /
 -------------------------------------------------
   
  Peak memory usage:   2772 Mb
  
  end of program geopt
   
 Time(geopt)  user:        4.5  user+sys:        4.5  wallclock:        2.3
  
  start of program cutabab2
  
  Peak memory usage:   2728 Mb
  
  end of program cutabab2
   
 Time(cutabab2)  user:        2.7  user+sys:        2.7  wallclock:        0.6
  
  start of program der2a
  
  Peak memory usage:   2735 Mb
  
  end of program der2a
   
 Time(der2a)  user:        2.8  user+sys:        2.8  wallclock:        0.5
  
  start of program grid
  
  
   Turning symmetry off because some of the
   following programs cannot use it.
   grid     grid set  grid #  grid sym
  ------    --------  ------  --------
  coarse        0        0        1
  medium        2        1        2
  fine          0        0        1
  ultrafine     4        2        2
  charge        0        0        1
  gradient      4        2        2
  density       0        0        1
  DFT-fine    -11        3        2
  DFT-med.    -10        4        2
  DFT-grad    -12        5        2
  DFT-der2     -8        6        2
  DFT-cphf     -9        7        2
  LMP2-enrg     4        2        2
  LMP2-grad     2        1        2
  DFT-cphf2   -15        8        2
  PBF-dens      0        0        1
  plotting      0        0        1
  Rel-grad    -17        0        1
  
  number of gridpoints: 
     atom        O1       C3       C5       C7       H5       H6      C10
  grid # 1      123       92       86       86      110      110       94
  grid # 2      517      335      289      294      442      442      339
  grid # 3     4304     4304     4304     4304     4304     4304     4304
  grid # 4     1192     1192     1192     1192     1192     1192     1192
  grid # 5     5226     5226     5226     5226     5226     5226     5226
  grid # 6    23504    12650    12650    12650    13718    13718    12650
  grid # 7      714      688      688      688      744      744      688
  grid # 8      360      358      358      358      382      382      358
   
  number of gridpoints: 
     atom        H8       H9      C13      H11      H12      H13      H14
  grid # 1      108      108       87      114      118      116      114
  grid # 2      438      438      317      455      456      454      444
  grid # 3     4304     4304     4304     4304     4304     4304     4304
  grid # 4     1192     1192     1192     1192     1192     1192     1192
  grid # 5     5226     5226     5226     5226     5226     5226     5226
  grid # 6    13718    13718    12650    13718    13718    13718    13718
  grid # 7      744      744      688      744      744      744      744
  grid # 8      382      382      358      382      382      382      382
   
  number of gridpoints: 
     atom     total
  grid # 1     1466
  grid # 2     5660
  grid # 3    60256
  grid # 4    16688
  grid # 5    73164
  grid # 6   196498
  grid # 7    10106
  grid # 8     5206
   
  Peak memory usage:   2638 Mb
  
  end of program grid
   
 Time(grid)  user:        5.5  user+sys:        5.5  wallclock:        0.9
  
  start of program der2b
  
  Peak memory usage:   3460 Mb
  
  end of program der2b
   
 Time(der2b)  user:       24.8  user+sys:       24.8  wallclock:        3.3
  
  start of program der2nda
  
  Computing the dispersion energy correction, gradient, hessian...
 
  Peak memory usage:   2674 Mb
  
  end of program der2nda
   
 Time(der2nda)  user:        2.4  user+sys:        2.4  wallclock:        0.7
  
  start of program der2ndb
  
  Peak memory usage:   3344 Mb
  
  end of program der2ndb
   
 Time(der2ndb)  user:       57.8  user+sys:       57.8  wallclock:        8.6
  
  start of program rwr
  
  Peak memory usage:   2686 Mb
  
  end of program rwr
   
 Time(rwr)  user:        5.3  user+sys:        5.3  wallclock:        0.8
  
  start of program cphfa
  
       1  vectors produced in CPHF
  
     v    i  j  k  i  g
     e    t  c  c  c  r
     c    e  o  o  u  i
     t    r  r  r  t  d       RMS  
  
     1    1  0  0  6  M     2.0E-02
     1    2  0  0  6  M     2.0E-03
     1    3  0  0  6  M     5.2E-04
     1    4  0  0  6  M     1.5E-04
     1    5  0  0  6  M     6.2E-05
     1    6  0  0  6  M     1.7E-05
  
  
  Atomic Polar Tensors (au): Total
  =========================
  
  APT for atom O1      
  --------------------------------------
       -0.4520      -0.0603      -0.0000
       -0.1127      -1.0632       0.0000
       -0.0000       0.0000      -0.3001
  --------------------------------------
  
  APT for atom C3      
  --------------------------------------
        0.9768       0.2820      -0.0000
        0.0823       1.1226      -0.0000
       -0.0000      -0.0000       0.1414
  --------------------------------------
  
  APT for atom C5      
  --------------------------------------
       -0.3370      -0.4032      -0.0000
       -0.0781       0.0453      -0.0000
       -0.0000      -0.0000       0.1064
  --------------------------------------
  
  APT for atom C7      
  --------------------------------------
       -0.0208      -0.1283      -0.0000
        0.0216       0.1428      -0.0000
        0.0000      -0.0000       0.1598
  --------------------------------------
  
  APT for atom H5      
  --------------------------------------
        0.0226       0.0466       0.0659
       -0.0132      -0.0121      -0.0285
        0.0706      -0.0358      -0.0112
  --------------------------------------
  
  APT for atom H6      
  --------------------------------------
        0.0226       0.0466      -0.0659
       -0.0132      -0.0121       0.0285
       -0.0706       0.0358      -0.0112
  --------------------------------------
  
  APT for atom C10     
  --------------------------------------
        0.2323       0.2196       0.0000
        0.0194       0.0834      -0.0000
       -0.0000       0.0000      -0.1556
  --------------------------------------
  
  APT for atom H8      
  --------------------------------------
       -0.0314      -0.0081       0.0848
       -0.0126      -0.0487      -0.0198
        0.0892      -0.0088      -0.0396
  --------------------------------------
  
  APT for atom H9      
  --------------------------------------
       -0.0314      -0.0081      -0.0848
       -0.0126      -0.0487       0.0198
       -0.0892       0.0088      -0.0396
  --------------------------------------
  
  APT for atom C13     
  --------------------------------------
        0.0821      -0.0884      -0.0000
       -0.0738      -0.1181       0.0000
        0.0000      -0.0000      -0.2802
  --------------------------------------
  
  APT for atom H11     
  --------------------------------------
       -0.2547       0.0744       0.0000
        0.1420      -0.0650      -0.0000
        0.0000      -0.0000       0.0580
  --------------------------------------
  
  APT for atom H12     
  --------------------------------------
       -0.0476      -0.0849      -0.0000
       -0.0582      -0.0258      -0.0000
       -0.0000       0.0000       0.1328
  --------------------------------------
  
  APT for atom H13     
  --------------------------------------
       -0.0741       0.0809      -0.0000
        0.0355       0.0210      -0.0000
        0.0000       0.0000       0.1231
  --------------------------------------
  
  APT for atom H14     
  --------------------------------------
       -0.0876       0.0310       0.0000
        0.0735      -0.0216      -0.0000
        0.0000      -0.0000       0.1159
  --------------------------------------
  
  Peak memory usage:   3095 Mb
  
  end of program cphfa
   
 Time(cphfa)  user:       46.4  user+sys:       46.4  wallclock:        6.1
  
  start of program freq
  
   
  Number of frequencies:  36
  harmonic frequencies in cm**-1, reduced masses in amu,
  force constants in mDyne/A, and
  normal modes in cartesian coordinates:          36
  IR intensities in km/mol
  
  vibration #            1        2        3        4        5        6
                  -------- -------- -------- -------- -------- --------
  frequencies      -127.72   -72.67    86.13   141.62   352.71   376.83
  symmetries       App      App      App      Ap       Ap       Ap      
  intensities         0.05     9.48     0.65     3.11     2.68     0.89
  reduc. mass         0.87     2.23     1.41     1.93     1.40     2.19
  force const         0.01     0.01     0.01     0.02     0.10     0.18
    O1       X     0.00005  0.00005  0.00002  0.11667 -0.02743  0.07893
    O1       Y    -0.00001 -0.00001 -0.00000 -0.02689  0.06968  0.09020
    O1       Z     0.00984 -0.13889  0.07354  0.00002 -0.00002  0.00001
    C3       X     0.00002 -0.00002  0.00003 -0.02257  0.09519 -0.02643
    C3       Y    -0.00001 -0.00001 -0.00000 -0.03551  0.07282  0.07847
    C3       Z    -0.03486  0.13645  0.05910 -0.00005 -0.00001 -0.00000
    C5       X    -0.00003 -0.00004 -0.00001 -0.10345  0.10228 -0.04739
    C5       Y     0.00003  0.00002  0.00003  0.05827  0.01907  0.04010
    C5       Z    -0.07302  0.05258 -0.14098  0.00006  0.00004 -0.00001
    C7       X    -0.00008 -0.00004 -0.00006 -0.10418 -0.08946  0.01355
    C7       Y     0.00002  0.00002  0.00001  0.05874 -0.04749  0.00680
    C7       Z     0.09603 -0.02386 -0.13000  0.00000  0.00001 -0.00000
    H5       X    -0.09179  0.02100 -0.09704 -0.08668  0.11585 -0.05475
    H5       Y     0.07852 -0.06998 -0.03417  0.08423  0.07950  0.01800
    H5       Z    -0.16142  0.09159 -0.19819  0.00383 -0.00684  0.00127
    H6       X     0.09176 -0.02107  0.09704 -0.08681  0.11572 -0.05471
    H6       Y    -0.07840  0.07004  0.03427  0.08424  0.07953  0.01800
    H6       Z    -0.16143  0.09159 -0.19819 -0.00361  0.00702 -0.00131
    C10      X    -0.00003 -0.00001 -0.00003 -0.03391 -0.11356  0.06710
    C10      Y    -0.00002 -0.00001 -0.00002 -0.02728 -0.06240 -0.10538
    C10      Z     0.11745  0.03313  0.05019 -0.00007 -0.00001  0.00000
    H8       X     0.07552 -0.05657 -0.08869 -0.09061 -0.10830  0.03407
    H8       Y    -0.10099  0.02309 -0.04033  0.08392 -0.11430  0.05304
    H8       Z     0.17719 -0.06935 -0.18285  0.00296  0.00303  0.00300
    H9       X    -0.07566  0.05651  0.08858 -0.09061 -0.10826  0.03407
    H9       Y     0.10105 -0.02303  0.04035  0.08381 -0.11435  0.05305
    H9       Z     0.17718 -0.06935 -0.18286 -0.00299 -0.00304 -0.00300
    C13      X     0.00007  0.00004  0.00005  0.11945  0.02408 -0.07898
    C13      Y    -0.00002 -0.00001 -0.00002 -0.02114 -0.06247 -0.12390
    C13      Z    -0.11396 -0.05771  0.07834  0.00005 -0.00001  0.00000
    H11      X     0.00000 -0.00004  0.00002 -0.07534  0.13708 -0.05284
    H11      Y    -0.00004 -0.00006 -0.00001 -0.14350  0.16316  0.02510
    H11      Z    -0.05880  0.51307  0.22254 -0.00024 -0.00002 -0.00001
    H12      X     0.00012  0.00007  0.00009  0.19552  0.10756 -0.18959
    H12      Y    -0.00009 -0.00005 -0.00008 -0.13293 -0.18537  0.03614
    H12      Z    -0.04020 -0.00200  0.22941 -0.00010 -0.00012  0.00002
    H13      X     0.00011  0.00007  0.00008  0.18583  0.09585 -0.17811
    H13      Y     0.00006  0.00003  0.00005  0.09692  0.06396 -0.29973
    H13      Z    -0.38375 -0.19133 -0.04833  0.00031  0.00013 -0.00002
    H14      X    -0.00006 -0.00003 -0.00006 -0.08043 -0.14074  0.06812
    H14      Y    -0.00008 -0.00005 -0.00007 -0.12392 -0.11971 -0.09790
    H14      Z     0.39473  0.16608  0.18389 -0.00036 -0.00017  0.00003
  
  vibration #            7        8        9       10       11       12
                  -------- -------- -------- -------- -------- --------
  frequencies       543.88   555.53   635.64   831.04   894.41   901.90
  symmetries       App      Ap       App      App      App      Ap      
  intensities        14.75    14.65     1.43     0.49    29.97     0.78
  reduc. mass         0.67     1.75     0.35     0.39     1.00     0.99
  force const         0.12     0.32     0.08     0.16     0.47     0.47
    O1       X    -0.00008  0.08839  0.00002 -0.00000 -0.00001 -0.00655
    O1       Y    -0.00008  0.08528  0.00001 -0.00000 -0.00002 -0.02097
    O1       Z    -0.00165  0.00000  0.03225  0.02831  0.00411 -0.00001
    C3       X     0.00007 -0.09012 -0.00002  0.00000 -0.00002 -0.02108
    C3       Y    -0.00006  0.06235  0.00001 -0.00000 -0.00001 -0.01418
    C3       Z    -0.00041  0.00001 -0.04899 -0.08263 -0.01416  0.00002
    C5       X     0.00002 -0.02490 -0.00002 -0.00000  0.00000  0.00132
    C5       Y     0.00008 -0.09965 -0.00003  0.00001  0.00006  0.06984
    C5       Z    -0.00988 -0.00000 -0.09843 -0.01417  0.00412 -0.00001
    C7       X    -0.00004  0.04759  0.00001  0.00002  0.00011  0.13029
    C7       Y     0.00009 -0.10616 -0.00002  0.00000  0.00003  0.03645
    C7       Z     0.01779  0.00001 -0.01095  0.10128  0.00232 -0.00001
    H5       X    -0.08494 -0.08234  0.43489  0.11782  0.00325  0.01022
    H5       Y     0.06089 -0.21778 -0.10162  0.31387  0.05268  0.06661
    H5       Z    -0.08893 -0.00450  0.24970 -0.01745 -0.00896  0.00616
    H6       X     0.08508 -0.08199 -0.43496 -0.11782 -0.00323  0.01024
    H6       Y    -0.06054 -0.21794  0.10150 -0.31385 -0.05255  0.06678
    H6       Z    -0.08894  0.00419  0.24970 -0.01745 -0.00897 -0.00615
    C10      X     0.00008 -0.06034  0.00000 -0.00001 -0.00006 -0.06828
    C10      Y    -0.00002  0.03126  0.00001 -0.00000 -0.00003 -0.02913
    C10      Z     0.13166  0.00012  0.04640 -0.06150 -0.05172  0.00005
    H8       X    -0.28910  0.01634  0.10458 -0.25541  0.00604  0.15063
    H8       Y     0.01826 -0.15062 -0.17800  0.20440  0.05777  0.11713
    H8       Z    -0.19679 -0.00933  0.11008 -0.13988 -0.00984 -0.00617
    H9       X     0.28910  0.01690 -0.10456  0.25543 -0.00580  0.15064
    H9       Y    -0.01798 -0.15069  0.17796 -0.20438 -0.05758  0.11732
    H9       Z    -0.19681  0.00893  0.11008 -0.13987 -0.00983  0.00620
    C13      X    -0.00003  0.01651 -0.00000 -0.00001 -0.00007 -0.08650
    C13      Y    -0.00003  0.04506  0.00001 -0.00001 -0.00005 -0.06243
    C13      Z    -0.04327 -0.00004 -0.00686 -0.01107  0.14378 -0.00012
    H11      X     0.00010 -0.11771 -0.00003  0.00000 -0.00003 -0.03844
    H11      Y    -0.00001  0.00204 -0.00001 -0.00001 -0.00004 -0.05118
    H11      Z    -0.00194 -0.00005  0.34534  0.42810  0.06598 -0.00010
    H12      X    -0.00014  0.10768  0.00000  0.00002  0.00016  0.19031
    H12      Y     0.00013 -0.08668  0.00001 -0.00005 -0.00039 -0.47296
    H12      Z    -0.54785 -0.00045 -0.18279  0.24745 -0.61158  0.00043
    H13      X    -0.00012  0.09840  0.00000  0.00002  0.00012  0.14224
    H13      Y    -0.00020  0.19002  0.00002  0.00003  0.00027  0.33278
    H13      Z     0.29901  0.00023  0.10578 -0.04536 -0.56098  0.00053
    H14      X     0.00007 -0.03535  0.00001 -0.00001  0.00000  0.01484
    H14      Y    -0.00005  0.07772  0.00003  0.00001  0.00011  0.14974
    H14      Z    -0.29341 -0.00021 -0.08484  0.04581  0.07485  0.00000
  
  vibration #           13       14       15       16       17       18
                  -------- -------- -------- -------- -------- --------
  frequencies       988.52  1007.78  1041.53  1053.29  1123.04  1156.46
  symmetries       App      Ap       App      Ap       Ap       App     
  intensities        13.87    54.61     0.14     5.24     0.68     0.11
  reduc. mass         0.43     3.00     0.75     2.39     1.35     0.39
  force const         0.25     1.79     0.48     1.56     1.00     0.31
    O1       X    -0.00000 -0.01935  0.00000  0.01337 -0.01560  0.00000
    O1       Y     0.00000  0.01559 -0.00001  0.00487 -0.01316 -0.00000
    O1       Z    -0.00141 -0.00001 -0.02302 -0.00000  0.00000 -0.02049
    C3       X     0.00001  0.17426 -0.00004 -0.02580  0.05908 -0.00001
    C3       Y     0.00000  0.02724 -0.00001  0.00234  0.00252 -0.00000
    C3       Z     0.00637  0.00004  0.10540  0.00002 -0.00002  0.10830
    C5       X    -0.00001 -0.14594  0.00002  0.08337 -0.06960  0.00000
    C5       Y    -0.00001 -0.07885  0.00005 -0.11927  0.06901  0.00001
    C5       Z    -0.00662 -0.00003 -0.09733 -0.00002  0.00002 -0.06038
    C7       X     0.00000 -0.01669  0.00002 -0.00424  0.13454  0.00001
    C7       Y     0.00000  0.00675 -0.00004  0.17355 -0.00845  0.00000
    C7       Z     0.01374  0.00004  0.11128  0.00002 -0.00001 -0.03343
    H5       X     0.00720 -0.13761  0.15913  0.01534 -0.09989  0.24528
    H5       Y    -0.03183 -0.15275 -0.15770 -0.28027 -0.07757  0.35440
    H5       Z     0.00763  0.02554  0.06812 -0.00471  0.01939  0.01502
    H6       X    -0.00722 -0.13771 -0.15908  0.01528 -0.09980 -0.24529
    H6       Y     0.03181 -0.15266  0.15789 -0.28021 -0.07755 -0.35443
    H6       Z     0.00762 -0.02549  0.06813  0.00474 -0.01942  0.01502
    C10      X     0.00001  0.02920 -0.00002 -0.06002 -0.13222 -0.00001
    C10      Y    -0.00000 -0.00053  0.00000 -0.00344  0.00458  0.00000
    C10      Z     0.06602 -0.00004 -0.07336 -0.00001  0.00002  0.04287
    H8       X    -0.03126  0.02128 -0.31310  0.01325  0.07971  0.18644
    H8       Y    -0.04169  0.12746 -0.14076  0.22147 -0.07437  0.33656
    H8       Z    -0.00313 -0.00353 -0.08442  0.00193 -0.02281  0.01392
    H9       X     0.03130  0.02147  0.31308  0.01337  0.07964 -0.18642
    H9       Y     0.04175  0.12747  0.14055  0.22153 -0.07435 -0.33659
    H9       Z    -0.00314  0.00347 -0.08441 -0.00196  0.02283  0.01391
    C13      X    -0.00002 -0.03106  0.00003  0.00138  0.06686  0.00000
    C13      Y    -0.00000  0.00475  0.00001 -0.02984  0.00315 -0.00000
    C13      Z     0.00371  0.00001  0.01308  0.00000 -0.00001 -0.00544
    H11      X     0.00001  0.23714 -0.00008 -0.00722  0.04948 -0.00002
    H11      Y     0.00001  0.15416 -0.00007  0.03139 -0.01880 -0.00002
    H11      Z    -0.02925 -0.00016 -0.38944 -0.00007  0.00007 -0.30970
    H12      X     0.00002  0.05566 -0.00004 -0.01804 -0.09707 -0.00001
    H12      Y    -0.00006 -0.12013  0.00010 -0.00936  0.23272  0.00001
    H12      Z     0.31991 -0.00002  0.03689  0.00001  0.00000 -0.02549
    H13      X     0.00002  0.05115 -0.00003 -0.03480 -0.10000 -0.00001
    H13      Y     0.00006  0.14872 -0.00009 -0.09381 -0.28620 -0.00002
    H13      Z    -0.52920  0.00003 -0.05220 -0.00001 -0.00000  0.02227
    H14      X     0.00003  0.07921 -0.00004 -0.14609 -0.26282 -0.00002
    H14      Y     0.00004  0.10413 -0.00005 -0.16587 -0.25809 -0.00002
    H14      Z    -0.73887  0.00010  0.09925  0.00002 -0.00005 -0.03801
  
  vibration #           19       20       21       22       23       24
                  -------- -------- -------- -------- -------- --------
  frequencies      1215.16  1271.90  1297.81  1324.97  1389.44  1405.30
  symmetries       Ap       App      Ap       Ap       Ap       Ap      
  intensities         9.61     0.06     1.60     5.87     2.58     8.80
  reduc. mass         0.41     0.25     0.62     0.78     0.80     0.34
  force const         0.36     0.24     0.62     0.81     0.91     0.40
    O1       X    -0.01251 -0.00000 -0.00393 -0.01060 -0.03851  0.00062
    O1       Y    -0.01477 -0.00000 -0.00194 -0.00181  0.05937 -0.00194
    O1       Z    -0.00000 -0.00529 -0.00000 -0.00000 -0.00000 -0.00000
    C3       X     0.02358  0.00000  0.00626  0.01022  0.07404  0.00844
    C3       Y     0.00269  0.00000  0.00122  0.00148  0.01584 -0.00166
    C3       Z    -0.00000  0.03144 -0.00000 -0.00000 -0.00000 -0.00000
    C5       X     0.03013 -0.00000  0.01802  0.06799 -0.00612  0.05277
    C5       Y     0.10292 -0.00000  0.02699  0.09096 -0.05569 -0.03582
    C5       Z     0.00000  0.05880  0.00000  0.00000  0.00000  0.00000
    C7       X    -0.01301 -0.00000 -0.02511 -0.05757  0.00893  0.00057
    C7       Y     0.06560  0.00000 -0.00279 -0.10996  0.01451 -0.00461
    C7       Z     0.00000 -0.05700 -0.00000  0.00000 -0.00000 -0.00000
    H5       X    -0.17152  0.05733 -0.05069 -0.16388  0.04333 -0.43381
    H5       Y    -0.38037  0.43389 -0.11513 -0.25405  0.09926  0.20011
    H5       Z    -0.00535 -0.02269 -0.00469 -0.06097 -0.00820 -0.38775
    H6       X    -0.17150 -0.05733 -0.05069 -0.16388  0.04334 -0.43381
    H6       Y    -0.38034 -0.43389 -0.11513 -0.25406  0.09924  0.20011
    H6       Z     0.00535 -0.02269  0.00470  0.06097  0.00820  0.38775
    C10      X     0.06030  0.00000 -0.07103  0.00474 -0.00076  0.01105
    C10      Y     0.00788 -0.00000  0.02429 -0.03196  0.00114  0.04372
    C10      Z    -0.00000 -0.02322 -0.00000 -0.00001 -0.00000 -0.00000
    H8       X    -0.16304 -0.07166  0.00290  0.17216 -0.02225  0.03186
    H8       Y    -0.37341 -0.49792  0.04843  0.36670 -0.00524 -0.00701
    H8       Z     0.00163  0.01596  0.00716  0.04079 -0.01947  0.02237
    H9       X    -0.16303  0.07164  0.00291  0.17217 -0.02225  0.03186
    H9       Y    -0.37341  0.49790  0.04845  0.36673 -0.00523 -0.00701
    H9       Z    -0.00163  0.01596 -0.00716 -0.04079  0.01947 -0.02237
    C13      X    -0.03296 -0.00000  0.06967 -0.00345 -0.00143 -0.00644
    C13      Y    -0.01276  0.00000 -0.06494  0.02794  0.00128  0.01080
    C13      Z     0.00000  0.00287  0.00000  0.00000 -0.00000 -0.00000
    H11      X    -0.04723  0.00002 -0.02329 -0.06642 -0.31499  0.02599
    H11      Y    -0.13108  0.00002 -0.05706 -0.16354 -0.82369  0.03750
    H11      Z     0.00001 -0.05229 -0.00000 -0.00000  0.00000 -0.00000
    H12      X     0.05208  0.00000  0.01430 -0.08190  0.00740  0.15433
    H12      Y    -0.13655 -0.00000 -0.00027  0.15638 -0.01254 -0.23966
    H12      Z    -0.00000  0.00829  0.00000  0.00000 -0.00000 -0.00000
    H13      X     0.02374  0.00000 -0.08251  0.06677 -0.00567 -0.12547
    H13      Y     0.07629  0.00000 -0.34259  0.17253 -0.00737 -0.21820
    H13      Z    -0.00000 -0.01054 -0.00000  0.00000  0.00000 -0.00000
    H14      X     0.02898 -0.00000  0.27554 -0.02788 -0.00659 -0.05125
    H14      Y    -0.04730 -0.00001  0.74539 -0.10548 -0.01379 -0.08306
    H14      Z     0.00000 -0.00140  0.00000  0.00001 -0.00000 -0.00000
  
  vibration #           25       26       27       28       29       30
                  -------- -------- -------- -------- -------- --------
  frequencies      1413.95  1437.89  1673.76  1777.00  2759.78  2958.82
  symmetries       Ap       Ap       Ap       Ap       Ap       Ap      
  intensities         3.65     4.46     4.31   165.32   125.61    12.74
  reduc. mass         0.34     0.48     4.42     6.58     0.93     0.44
  force const         0.41     0.59     7.30    12.24     4.16     2.29
    O1       X    -0.00110 -0.00061 -0.00055  0.01005  0.00033  0.00026
    O1       Y     0.00247  0.00202  0.00361 -0.15187  0.00202  0.00019
    O1       Z     0.00000 -0.00000 -0.00000  0.00000  0.00000 -0.00000
    C3       X    -0.00366  0.00313  0.00140 -0.00152 -0.07311 -0.00249
    C3       Y    -0.00016  0.00270 -0.00380  0.22439  0.03029  0.00041
    C3       Z    -0.00000 -0.00000 -0.00000 -0.00000  0.00000 -0.00000
    C5       X    -0.01810 -0.01420 -0.00551 -0.00096  0.00065  0.01345
    C5       Y     0.02964 -0.01091 -0.00230 -0.01823  0.00200 -0.00568
    C5       Z     0.00000  0.00000  0.00000 -0.00000 -0.00000  0.00000
    C7       X    -0.03028 -0.06384 -0.01108 -0.00426  0.00146 -0.06158
    C7       Y    -0.05521  0.04031 -0.03074 -0.00538 -0.00053  0.02183
    C7       Z     0.00000  0.00000  0.00000  0.00000  0.00000  0.00000
    H5       X     0.18748  0.02448  0.00137  0.01565 -0.00425 -0.07784
    H5       Y    -0.11507  0.01861  0.01032  0.02560 -0.00025  0.03117
    H5       Z     0.17572  0.01804  0.00084 -0.00013  0.00280  0.11717
    H6       X     0.18748  0.02448  0.00137  0.01565 -0.00425 -0.07784
    H6       Y    -0.11507  0.01861  0.01032  0.02560 -0.00025  0.03117
    H6       Z    -0.17572 -0.01804 -0.00084  0.00013 -0.00281 -0.11717
    C10      X     0.03154 -0.01013  0.02315  0.00134  0.00032  0.00114
    C10      Y     0.08581 -0.00255  0.19686  0.00379 -0.00057 -0.00077
    C10      Z    -0.00000 -0.00000 -0.00000 -0.00000  0.00000 -0.00000
    H8       X     0.05699  0.47945  0.01119 -0.00250 -0.01193  0.36517
    H8       Y     0.10373 -0.21828  0.02214  0.00822 -0.00055 -0.12795
    H8       Z     0.02260  0.42397 -0.00028 -0.00325  0.01450 -0.54622
    H9       X     0.05699  0.47946  0.01119 -0.00250 -0.01193  0.36517
    H9       Y     0.10373 -0.21828  0.02214  0.00822 -0.00055 -0.12795
    H9       Z    -0.02260 -0.42397  0.00028  0.00325 -0.01450  0.54622
    C13      X    -0.01429  0.00235  0.00231 -0.00015 -0.00009  0.00016
    C13      Y     0.03309 -0.00139 -0.17834 -0.00212 -0.00006 -0.00061
    C13      Z     0.00000  0.00000  0.00000  0.00000  0.00000  0.00000
    H11      X    -0.01466 -0.00561  0.00402 -0.11855  0.86828  0.02238
    H11      Y    -0.02771 -0.01818 -0.00300 -0.06496 -0.40352 -0.00636
    H11      Z    -0.00000 -0.00000 -0.00000 -0.00000 -0.00000 -0.00000
    H12      X     0.31607 -0.01489 -0.19402 -0.00193  0.00088  0.01158
    H12      Y    -0.47986  0.02701  0.07500 -0.00040  0.00011  0.00521
    H12      Z     0.00000  0.00000  0.00000  0.00000  0.00000  0.00000
    H13      X    -0.25640  0.01134  0.19826  0.00223 -0.00074 -0.01338
    H13      Y    -0.43012  0.01745  0.12635  0.00118  0.00025  0.00507
    H13      Z     0.00000  0.00000 -0.00000  0.00000 -0.00000 -0.00000
    H14      X    -0.10223 -0.00466 -0.14706 -0.00147  0.00138 -0.01198
    H14      Y    -0.18836  0.00562 -0.10241 -0.00371  0.00197  0.00596
    H14      Z     0.00000  0.00001  0.00000  0.00000  0.00000  0.00000
  
  vibration #           31       32       33       34       35       36
                  -------- -------- -------- -------- -------- --------
  frequencies      2972.95  2991.52  3017.34  3072.36  3085.10  3174.46
  symmetries       Ap       App      App      Ap       Ap       Ap      
  intensities        15.24     7.07    15.28    16.84     5.44    14.24
  reduc. mass         0.44     0.38     0.38     0.71     0.44     0.56
  force const         2.31     2.00     2.04     3.92     2.44     3.34
    O1       X    -0.00014  0.00000 -0.00000 -0.00003  0.00005 -0.00002
    O1       Y    -0.00026 -0.00000  0.00000  0.00002  0.00005 -0.00002
    O1       Z     0.00000  0.00016 -0.00022  0.00000 -0.00000 -0.00000
    C3       X     0.00100 -0.00000  0.00000 -0.00001 -0.00022  0.00007
    C3       Y    -0.00067  0.00000 -0.00000 -0.00019  0.00010 -0.00001
    C3       Z    -0.00000 -0.00076  0.00099 -0.00000  0.00000  0.00000
    C5       X     0.06097 -0.00000  0.00000 -0.00115  0.00072 -0.00012
    C5       Y    -0.02456  0.00000 -0.00000  0.00070 -0.00021  0.00005
    C5       Z    -0.00000 -0.03414  0.08043 -0.00000  0.00000 -0.00000
    C7       X     0.01330 -0.00000  0.00000 -0.00121 -0.00126  0.00062
    C7       Y    -0.00368  0.00000 -0.00000  0.00164 -0.00019  0.00025
    C7       Z     0.00000  0.08067  0.03536 -0.00000  0.00000  0.00000
    H5       X    -0.36204 -0.15456  0.35248  0.00710 -0.00268  0.00048
    H5       Y     0.14608  0.05824 -0.14062 -0.00562  0.00166 -0.00078
    H5       Z     0.54376  0.20980 -0.48511 -0.01186  0.00430 -0.00089
    H6       X    -0.36203  0.15456 -0.35248  0.00710 -0.00268  0.00048
    H6       Y     0.14607 -0.05824  0.14062 -0.00562  0.00166 -0.00078
    H6       Z    -0.54375  0.20981 -0.48512  0.01187 -0.00430  0.00089
    C10      X    -0.00170  0.00000 -0.00000 -0.06731  0.02487 -0.00887
    C10      Y     0.00108 -0.00000  0.00000  0.03349 -0.02149  0.00510
    C10      Z     0.00000  0.00059 -0.00003 -0.00000 -0.00000 -0.00000
    H8       X    -0.07884  0.35610  0.15221  0.00919  0.00524  0.00096
    H8       Y     0.02791 -0.12294 -0.05591 -0.00252 -0.00062  0.00221
    H8       Z     0.11730 -0.48703 -0.21094 -0.01436 -0.00548 -0.00041
    H9       X    -0.07884 -0.35610 -0.15221  0.00919  0.00524  0.00096
    H9       Y     0.02791  0.12294  0.05592 -0.00252 -0.00062  0.00221
    H9       Z    -0.11730 -0.48703 -0.21095  0.01436  0.00548  0.00041
    C13      X    -0.00028  0.00000  0.00000  0.00294 -0.01905 -0.09187
    C13      Y    -0.00004  0.00000 -0.00000  0.01984  0.06230 -0.01476
    C13      Z    -0.00000 -0.00043 -0.00019  0.00000  0.00000  0.00000
    H11      X    -0.00978  0.00000 -0.00000  0.00178  0.00071 -0.00010
    H11      Y     0.00451 -0.00000  0.00000  0.00038 -0.00072  0.00015
    H11      Z    -0.00000 -0.00028  0.00419 -0.00000 -0.00000  0.00000
    H12      X    -0.00307 -0.00000  0.00000 -0.23531 -0.42818  0.62600
    H12      Y    -0.00203 -0.00000 -0.00000 -0.15143 -0.27374  0.42849
    H12      Z    -0.00000 -0.00118 -0.00009  0.00000 -0.00000 -0.00000
    H13      X     0.00280 -0.00000 -0.00000  0.19652  0.65752  0.47608
    H13      Y    -0.00029  0.00000  0.00000 -0.10385 -0.35856 -0.27582
    H13      Z    -0.00000  0.00276  0.00112 -0.00000 -0.00000  0.00000
    H14      X     0.02136 -0.00000  0.00000  0.79959 -0.29608  0.08807
    H14      Y    -0.01413  0.00000 -0.00000 -0.38984  0.14765 -0.04380
    H14      Z    -0.00000  0.00372  0.00250 -0.00000  0.00000  0.00000
  
  Number of imaginary frequencies:   2
   
  Writing vibrational animation data to alde.vib
  Writing IR vibrational spectrum data to alde_vib.spm
  rotational symmetry number:  1

  rotational temperatures (K):      1.076481      0.060114      0.057782
   
  The Quasi-Harmonic approximation will be applied to compute
  vibrational constributions to thermodynamic properties.
  Frequencies will be adjusted to a minimum value of  100.00 cm^-1.

    2 vibrational frequencies below   0.0 cm-1 not included in zero-point
  energy or thermochemical analysis.  Set freqcut to change the frequency
  cutoff value.

  vibrational temperatures:
       mode:      3        4        5        6        7        8
  temp. (K):   143.88   203.76   507.47   542.18   782.52   799.29
   
       mode:      9       10       11       12       13       14
  temp. (K):   914.55  1195.68  1286.86  1297.63  1422.26  1449.97
   
       mode:     15       16       17       18       19       20
  temp. (K):  1498.53  1515.44  1615.80  1663.89  1748.34  1829.98
   
       mode:     21       22       23       24       25       26
  temp. (K):  1867.26  1906.34  1999.09  2021.91  2034.36  2068.80
   
       mode:     27       28       29       30       31       32
  temp. (K):  2408.17  2556.70  3970.71  4257.08  4277.41  4304.13
   
       mode:     33       34       35       36
  temp. (K):  4341.27  4420.43  4438.76  4567.33
   
   
  Thermodynamic properties calculated assuming an ideal gas

  In the table below, the units for temperature
  are kelvins, the units for U, H, and G are
  kcal/mol and the units for Cv and S are cal/(mol K)

  The zero point energy (ZPE):     71.398 kcal/mol
  is not included in U, H, or G in the table below
  
 
  =============================================================================
  Thermodynamic properties for P = 1.00E+00 atm, calculated at   1 temperatures


  T =   298.15 K, P = 1.00E+00 atm
   
                  U         Cv          S          H          G        ln(Q)
              =========  =========  =========  =========  =========  =========
  trans.          0.889      2.981     39.200      1.481    -10.206   17.22638
  rot.            0.889      2.981     26.655      0.889     -7.058   11.91321
  vib.            1.910     14.825     11.038      1.910     -1.381    2.33091
  elec.           0.000      0.000      0.000      0.000      0.000    0.00000
  ----------------------------------------------------------------------------
  total           3.687     20.787     76.893      4.280    -18.646   31.47049
   
   Total internal energy, Utot(SCFE + ZPE + U):    -270.072661 hartrees
              Total enthalpy, Htot (Utot + pV):    -270.071717 hartrees
    Total Gibbs free energy, Gtot (Htot - T*S):    -270.108252 hartrees
   
  Peak memory usage:   2798 Mb
  
  end of program freq
   
 Time(freq)  user:        4.4  user+sys:        4.4  wallclock:        2.2

 Total cpu seconds     user:     239.112   user+sys:     239.112
  
 Total elapsed time:    78 seconds

Job alde completed on hpc-89-08.cm.cluster at Tue Apr 18 20:05:09 2023
