
#Set velocity (in km/s)
variable v equal 7

#Controls angle of impact
#a = angle from horizontal/10
variable        a equal 9

#Loop through the simulation several times with different random seeds
variable        b equal 1
label           loopb
variable        seed equal 240323*$b
variable        seed equal 240323*1

#Set up impact simulation
print		"<<<<<<<<< Vel=$v, Angle=$a, Test=$b >>>>>>>>>>>"
<<<<<<<<< Vel=7, Angle=9, Test=1 >>>>>>>>>>>
units	        real
newton	     	on
atom_style full

#Periodic boundary conditions
boundary        p p p

#Read the data file
read_data       data.${sname}
read_data       data.pth2o
  triclinic box = (0 0 0) to (44.3939 44.3939 50) with tilt (0 0 0)
  1 by 1 by 1 MPI processor grid
  reading atoms ...
  1539 atoms
  0 = max # of 1-2 neighbors
  0 = max # of 1-3 neighbors
  0 = max # of 1-4 neighbors
  1 = max # of special neighbors

#Obtain the REAX pair coefficients from the ffield file
pair_style      reax/c NULL safezone 5.0 mincap 1200
pair_coeff  	* * ffield.reax Pt H O

#Apply qeq charge equilibration
fix 		qeq all qeq/reax 1 0.0 10.0 1.0e-6 reax/c

#Details of how lammps computes neighboring atoms for pairwise interactions
neighbor        2.5  bin
neigh_modify    delay 10 every 2 check yes one 15000 page 150000

#group impacting H2O by atom ids
group impactor id 1537:1539
3 atoms in group impactor

#Print thermodynamic data every 10 steps
thermo          10

#Randomize initial position and set far to equilibrate
displace_atoms 	impactor move 20.0 20.0 0.0 units box

#Compute the center of mass of the impactor
compute         cmi impactor com
variable        xd equal c_cmi[1]
variable        yd equal c_cmi[2]
variable        zd equal c_cmi[3]
variable        ranangle equal random(0,90,${seed})
variable        ranangle equal random(0,90,240323)
thermo_style    custom step etotal pe ke temp press vol c_cmi[1] c_cmi[2] c_cmi[3]

#Rotate the impactor before beginning simulation
print ">>>>>> Rotated impactor by ${ranangle} <<<<<<<"
>>>>>> Rotated impactor by 38.1471168994904 <<<<<<<
run 0
Neighbor list info ...
  update every 2 steps, delay 10 steps, check yes
  max neighbors/atom: 15000, page size: 150000
  master list distance cutoff = 12.5
  ghost atom cutoff = 12.5
  binsize = 6.25, bins = 8 8 8
  2 neighbor lists, perpetual/occasional/extra = 2 0 0
  (1) pair reax/c, perpetual
      attributes: half, newton off, ghost
      pair build: half/bin/newtoff/ghost
      stencil: half/ghost/bin/3d/newtoff
      bin: standard
  (2) fix qeq/reax, perpetual, copy from (1)
      attributes: half, newton off, ghost
      pair build: copy
      stencil: none
      bin: none
Per MPI rank memory allocation (min/avg/max) = 655.1 | 655.1 | 655.1 Mbytes
Step TotEng PotEng KinEng Temp Press Volume c_cmi[1] c_cmi[2] c_cmi[3] 
       0   -175150.65   -175150.65            0            0   -10243.304    98540.745    22.227217    20.053875    32.690199 
Loop time of 2.14577e-06 on 1 procs for 0 steps with 1539 atoms

139.8% CPU use with 1 MPI tasks x no OpenMP threads

MPI task timing breakdown:
Section |  min time  |  avg time  |  max time  |%varavg| %total
---------------------------------------------------------------
Pair    | 0          | 0          | 0          |   0.0 |  0.00
Bond    | 0          | 0          | 0          |   0.0 |  0.00
Neigh   | 0          | 0          | 0          |   0.0 |  0.00
Comm    | 0          | 0          | 0          |   0.0 |  0.00
Output  | 0          | 0          | 0          |   0.0 |  0.00
Modify  | 0          | 0          | 0          |   0.0 |  0.00
Other   |            | 2.146e-06  |            |       |100.00

Nlocal:    1539 ave 1539 max 1539 min
Histogram: 1 0 0 0 0 0 0 0 0 0
Nghost:    5964 ave 5964 max 5964 min
Histogram: 1 0 0 0 0 0 0 0 0 0
Neighs:    291267 ave 291267 max 291267 min
Histogram: 1 0 0 0 0 0 0 0 0 0

Total # of neighbors = 291267
Ave neighs/atom = 189.257
Ave special neighs/atom = 0
Neighbor list builds = 0
Dangerous builds = 0
displace_atoms  impactor rotate ${xd} ${yd} ${zd} 0.0 0.0 1.0 ${ranangle}
displace_atoms  impactor rotate 22.22721660746 ${yd} ${zd} 0.0 0.0 1.0 ${ranangle}
displace_atoms  impactor rotate 22.22721660746 20.053874955595 ${zd} 0.0 0.0 1.0 ${ranangle}
displace_atoms  impactor rotate 22.22721660746 20.053874955595 32.6901990754796 0.0 0.0 1.0 ${ranangle}
displace_atoms  impactor rotate 22.22721660746 20.053874955595 32.6901990754796 0.0 0.0 1.0 6.82583034038544
displace_atoms  impactor rotate ${xd} ${yd} ${zd} 0.0 1.0 0.0 ${ranangle}
displace_atoms  impactor rotate 22.22721660746 ${yd} ${zd} 0.0 1.0 0.0 ${ranangle}
displace_atoms  impactor rotate 22.22721660746 20.053874955595 ${zd} 0.0 1.0 0.0 ${ranangle}
displace_atoms  impactor rotate 22.22721660746 20.053874955595 32.6901990754796 0.0 1.0 0.0 ${ranangle}
displace_atoms  impactor rotate 22.22721660746 20.053874955595 32.6901990754796 0.0 1.0 0.0 4.71330642700195
displace_atoms  impactor rotate ${xd} ${yd} ${zd} 1.0 0.0 0.0 ${ranangle}
displace_atoms  impactor rotate 22.22721660746 ${yd} ${zd} 1.0 0.0 0.0 ${ranangle}
displace_atoms  impactor rotate 22.22721660746 20.053874955595 ${zd} 1.0 0.0 0.0 ${ranangle}
displace_atoms  impactor rotate 22.22721660746 20.053874955595 32.6901990754796 1.0 0.0 0.0 ${ranangle}
displace_atoms  impactor rotate 22.22721660746 20.053874955595 32.6901990754796 1.0 0.0 0.0 0.0323742628097534

#Simulation timestep
timestep  	0.1

#Print data to lammptrj file
dump            1 all custom ${dumpstep}  ${sname}.$v.lammpstrj id type x y z vx vy vz
dump            1 all custom 100  ${sname}.$v.lammpstrj id type x y z vx vy vz
dump            1 all custom 100  pth2o.$v.lammpstrj id type x y z vx vy vz
dump            1 all custom 100  pth2o.7.lammpstrj id type x y z vx vy vz
dump_modify     1 sort id

#First, minimize structure
min_style       cg
minimize        0.0 1e-6 ${minsteps} 5000
minimize        0.0 1e-6 2000 5000
WARNING: Using 'neigh_modify every 1 delay 0 check yes' setting during minimization (../min.cpp:168)
Per MPI rank memory allocation (min/avg/max) = 657.7 | 657.7 | 657.7 Mbytes
Step TotEng PotEng KinEng Temp Press Volume c_cmi[1] c_cmi[2] c_cmi[3] 
       0   -175150.65   -175150.65            0            0   -10243.304    98540.745    22.227217    20.053875    32.690199 
      10   -180521.25   -180521.25            0            0   -14670.741    98540.745    22.270813     20.03625    32.718326 
      20   -183858.12   -183858.12            0            0     -14040.2    98540.745    22.270813    20.036249    32.718308 
      30    -187033.1    -187033.1            0            0   -12101.108    98540.745    22.270813     20.03625    32.718337 
      40   -189590.85   -189590.85            0            0   -9479.8697    98540.745    22.270813    20.036251    32.718354 
      50   -192125.99   -192125.99            0            0   -7461.2087    98540.745    22.270813     20.03625    32.718338 
      60    -193714.5    -193714.5            0            0    3907.6989    98540.745    22.240719    20.048416    32.698906 
      70   -193725.73   -193725.73            0            0    2580.4512    98540.745    22.233365    20.051389    32.694161 
      80   -193726.37   -193726.37            0            0    2241.1269    98540.745    22.235192     20.05065    32.695341 
      90   -193726.44   -193726.44            0            0    2163.7367    98540.745    22.235113    20.050683    32.695289 
     100   -193726.44   -193726.44            0            0    2167.0216    98540.745    22.235268     20.05062    32.695391 
     108   -193726.44   -193726.44            0            0    2166.1431    98540.745     22.23525    20.050627    32.695376 
Loop time of 44.6415 on 1 procs for 108 steps with 1539 atoms

99.4% CPU use with 1 MPI tasks x no OpenMP threads

Minimization stats:
  Stopping criterion = linesearch alpha is zero
  Energy initial, next-to-last, final = 
        -175150.648513     -193726.443519     -193726.443475
  Force two-norm initial, final = 630.233 0.0253096
  Force max component initial, final = 45.9564 0.0115236
  Final line search alpha, max atom move = 3.05176e-05 3.51673e-07
  Iterations, force evaluations = 108 259

MPI task timing breakdown:
Section |  min time  |  avg time  |  max time  |%varavg| %total
---------------------------------------------------------------
Pair    | 40.728     | 40.728     | 40.728     |   0.0 | 91.23
Bond    | 0.00013566 | 0.00013566 | 0.00013566 |   0.0 |  0.00
Neigh   | 0.025895   | 0.025895   | 0.025895   |   0.0 |  0.06
Comm    | 0.012411   | 0.012411   | 0.012411   |   0.0 |  0.03
Output  | 0.0060022  | 0.0060022  | 0.0060022  |   0.0 |  0.01
Modify  | 3.8495     | 3.8495     | 3.8495     |   0.0 |  8.62
Other   |            | 0.01956    |            |       |  0.04

Nlocal:    1539 ave 1539 max 1539 min
Histogram: 1 0 0 0 0 0 0 0 0 0
Nghost:    5964 ave 5964 max 5964 min
Histogram: 1 0 0 0 0 0 0 0 0 0
Neighs:    302424 ave 302424 max 302424 min
Histogram: 1 0 0 0 0 0 0 0 0 0

Total # of neighbors = 302424
Ave neighs/atom = 196.507
Ave special neighs/atom = 0
Neighbor list builds = 1
Dangerous builds = 0

#Then, run equilibration
velocity 	all create 100.0 4928459 rot yes dist gaussian #generates initial velocities at 100 K  via a gaussian distribution
fix 		equil all nvt temp 100.0 100.0 50.0 #nvt dynamics on all atoms at starting and ending temps of 100 K w 50 fs damping
run 		${eqsteps}
run 		500
Per MPI rank memory allocation (min/avg/max) = 657.8 | 657.8 | 657.8 Mbytes
Step TotEng PotEng KinEng Temp Press Volume c_cmi[1] c_cmi[2] c_cmi[3] 
     108   -193267.99   -193726.44    458.44859          100     2378.811    98540.745     22.23525    20.050627    32.695376 
     110   -193267.99   -193726.42    458.42547    99.994958    2378.2886    98540.745    22.235193    20.051241    32.695248 
     120   -193267.99   -193725.66    457.66384    99.828825    2376.5494    98540.745    22.234905    20.054311     32.69461 
     130   -193267.99   -193724.09    456.09497    99.486613    2376.6724    98540.745    22.234617    20.057381    32.693972 
     140   -193267.99   -193722.06    454.06751     99.04437    2378.9604    98540.745    22.234329    20.060451    32.693334 
     150   -193267.99   -193719.58    451.59061     98.50409    2383.4258    98540.745    22.234041    20.063521    32.692696 
     160   -193267.97   -193716.32    448.34364    97.795838    2389.7716    98540.745    22.233753    20.066592    32.692058 
     170   -193267.96   -193712.03     444.0729    96.864276    2397.4002    98540.745    22.233465    20.069662    32.691421 
     180   -193267.93   -193706.87    438.94639    95.746045    2405.5586    98540.745    22.233178    20.072732    32.690783 
     190   -193267.88   -193701.27    433.38833    94.533683      2413.66    98540.745     22.23289    20.075803    32.690145 
     200   -193267.82   -193695.35    427.53269     93.25641    2421.6033    98540.745    22.232602    20.078873    32.689507 
     210   -193267.73    -193688.8    421.06847    91.846388    2429.8665    98540.745    22.232314    20.081944    32.688869 
     220   -193267.62   -193681.33    413.71206    90.241756     2439.224    98540.745    22.232026    20.085015     32.68823 
     230   -193267.47   -193673.08    405.60666    88.473751    2450.3051    98540.745    22.231738    20.088087    32.687592 
     240   -193267.29   -193664.46     397.1631    86.631983    2463.3233    98540.745     22.23145    20.091159    32.686954 
     250   -193267.08   -193655.69    388.61408    84.767211    2478.1107    98540.745    22.231161    20.094233    32.686315 
     260   -193266.82   -193646.61    379.78694    82.841774    2494.2128    98540.745    22.230873    20.097307    32.685677 
     270   -193266.51   -193636.87    370.35074    80.783485    2510.9168    98540.745    22.230585    20.100382    32.685038 
     280   -193266.16   -193626.45    360.29498    78.590052    2527.3888    98540.745    22.230296    20.103458    32.684398 
     290   -193265.75   -193615.77    350.01603    76.347936    2543.0947    98540.745    22.230008    20.106537    32.683759 
     300   -193265.29   -193605.12    339.82922    74.125918    2558.1408    98540.745    22.229719    20.109617    32.683119 
     310   -193264.77   -193594.37    329.60613    71.895985    2573.1391    98540.745     22.22943    20.112699    32.682478 
     320   -193264.19   -193583.23    319.04048    69.591333    2588.8124    98540.745     22.22914    20.115784    32.681838 
     330   -193263.56   -193571.66    308.09652     67.20416     2605.665    98540.745    22.228851    20.118872    32.681196 
     340   -193262.88   -193559.96    297.07714    64.800535    2623.7699    98540.745    22.228561    20.121963    32.680554 
     350   -193262.16   -193548.47    286.31681    62.453418    2642.7771    98540.745    22.228271    20.125058    32.679911 
     360   -193261.39   -193537.23    275.84301      60.1688    2662.0804    98540.745     22.22798    20.128156    32.679267 
     370   -193260.58   -193525.95    265.36772    57.883857    2680.9936    98540.745    22.227689     20.13126    32.678622 
     380   -193259.75   -193514.43    254.67606    55.551716    2698.8823    98540.745    22.227398    20.134368    32.677976 
     390   -193258.91   -193502.87    243.95809    53.213839    2715.3693    98540.745    22.227106    20.137481    32.677329 
     400   -193258.07   -193491.67     233.5978    50.953981    2730.5063    98540.745    22.226813    20.140599    32.676681 
     410   -193257.24   -193480.93    223.69508     48.79393     2744.836    98540.745     22.22652    20.143724    32.676032 
     420   -193256.43   -193470.43    214.00451    46.680155    2759.1215    98540.745    22.226227    20.146853    32.675382 
     430   -193255.65   -193459.96    204.31084    44.565704    2773.9723    98540.745    22.225933    20.149989    32.674731 
     440    -193254.9   -193449.62    194.71344    42.472252    2789.4625    98540.745    22.225638    20.153131    32.674078 
     450    -193254.2   -193439.75    185.54525    40.472422     2805.118    98540.745    22.225343    20.156278    32.673424 
     460   -193253.54   -193430.57    177.03084      38.6152    2820.1383    98540.745    22.225047    20.159431    32.672769 
     470   -193252.91   -193421.94    169.02691    36.869327    2833.7293    98540.745    22.224751     20.16259    32.672112 
     480   -193252.31   -193413.53    161.21343    35.164997    2845.3852    98540.745    22.224454    20.165755    32.671455 
     490   -193251.74    -193405.3    153.55638    33.494788    2855.0621    98540.745    22.224157    20.168925    32.670796 
     500    -193251.2   -193397.59    146.39109    31.931845    2863.1197    98540.745    22.223859    20.172101    32.670136 
     510   -193250.67   -193390.67    140.00748    30.539406    2870.1518    98540.745    22.223561    20.175283    32.669475 
     520   -193250.15   -193384.48    134.33719    29.302565    2876.8125    98540.745    22.223262    20.178471    32.668813 
     530   -193249.63   -193378.74    129.10259    28.160756    2883.5754    98540.745    22.222962    20.181665    32.668149 
     540   -193249.13   -193373.29     124.1692    27.084652    2890.4733    98540.745    22.222662    20.184866    32.667484 
     550   -193248.62   -193368.34    119.72248    26.114702    2897.0484    98540.745    22.222362    20.188073    32.666818 
     560   -193248.11    -193364.2    116.08945     25.32224    2902.5518    98540.745     22.22206    20.191287     32.66615 
     570    -193247.6   -193360.94    113.33841    24.722163     2906.281    98540.745    22.221758    20.194507    32.665481 
     580   -193247.08   -193358.23    111.15151    24.245143    2907.8394    98540.745    22.221455    20.197735     32.66481 
     590   -193246.56   -193355.79     109.2293    23.825855    2907.3049    98540.745    22.221152    20.200971    32.664138 
     600   -193246.02   -193353.72    107.69264    23.490668    2905.1693    98540.745    22.220848    20.204215    32.663464 
     608   -193245.59   -193352.59    106.99247    23.337944    2902.7717    98540.745    22.220604    20.206815    32.662923 
Loop time of 87.1589 on 1 procs for 500 steps with 1539 atoms

Performance: 0.050 ns/day, 484.216 hours/ns, 5.737 timesteps/s
99.5% CPU use with 1 MPI tasks x no OpenMP threads

MPI task timing breakdown:
Section |  min time  |  avg time  |  max time  |%varavg| %total
---------------------------------------------------------------
Pair    | 80.776     | 80.776     | 80.776     |   0.0 | 92.68
Bond    | 0.00024629 | 0.00024629 | 0.00024629 |   0.0 |  0.00
Neigh   | 0          | 0          | 0          |   0.0 |  0.00
Comm    | 0.023339   | 0.023339   | 0.023339   |   0.0 |  0.03
Output  | 0.031724   | 0.031724   | 0.031724   |   0.0 |  0.04
Modify  | 6.3218     | 6.3218     | 6.3218     |   0.0 |  7.25
Other   |            | 0.005716   |            |       |  0.01

Nlocal:    1539 ave 1539 max 1539 min
Histogram: 1 0 0 0 0 0 0 0 0 0
Nghost:    5964 ave 5964 max 5964 min
Histogram: 1 0 0 0 0 0 0 0 0 0
Neighs:    311995 ave 311995 max 311995 min
Histogram: 1 0 0 0 0 0 0 0 0 0

Total # of neighbors = 311995
Ave neighs/atom = 202.726
Ave special neighs/atom = 0
Neighbor list builds = 0
Dangerous builds = 0
unfix 		equil

#Bring the impactor close to the surface
displace_atoms  impactor move 0.0 0.0 -15.0 units box

#Give the impactor a velocity toward the surface
variable 	impv equal $v*-0.01
variable 	impv equal 7*-0.01
variable 	ang equal PI*$a*10/180.0
variable 	ang equal PI*9*10/180.0
variable 	vy equal ${impv}*cos(${ang})
variable 	vy equal -0.07*cos(${ang})
variable 	vy equal -0.07*cos(1.5707963267949)
variable 	vz equal ${impv}*sin(${ang})
variable 	vz equal -0.07*sin(${ang})
variable 	vz equal -0.07*sin(1.5707963267949)
velocity 	impactor set NULL ${vy} ${vz} sum yes units box
velocity 	impactor set NULL 2.44403693719019e-16 ${vz} sum yes units box
velocity 	impactor set NULL 2.44403693719019e-16 -0.07 sum yes units box

#Guess the number of steps that will be needed
variable impsteps equal ceil(-20/${vz}*10)
variable impsteps equal ceil(-20/-0.07*10)

#Run the impact simulation
fix  		dyn all nve
fix 		frags all reax/c/species 10 10 100 species.$b.$a.out element Pt H O cutoff 2 2 .88 cutoff 3 3 .88 cutoff 2 3 .88
fix 		frags all reax/c/species 10 10 100 species.1.$a.out element Pt H O cutoff 2 2 .88 cutoff 3 3 .88 cutoff 2 3 .88
fix 		frags all reax/c/species 10 10 100 species.1.9.out element Pt H O cutoff 2 2 .88 cutoff 3 3 .88 cutoff 2 3 .88
WARNING: Resetting reneighboring criteria for fix reax/c/species (../fix_reaxc_species.cpp:103)
fix  		bonds all reax/c/bonds 100 bonds.reaxc.$b.$a.${sname}
fix  		bonds all reax/c/bonds 100 bonds.reaxc.1.$a.${sname}
fix  		bonds all reax/c/bonds 100 bonds.reaxc.1.9.${sname}
fix  		bonds all reax/c/bonds 100 bonds.reaxc.1.9.pth2o
run 		${impsteps}
run 		2858
Per MPI rank memory allocation (min/avg/max) = 668.8 | 668.8 | 668.8 Mbytes
Step TotEng PotEng KinEng Temp Press Volume c_cmi[1] c_cmi[2] c_cmi[3] 
     608   -193138.08   -193352.61    214.52557    46.793812    2952.6173    98540.745    22.220604    20.206815    17.662923 
     610   -193138.08   -193352.42    214.33392    46.752008    2951.9186    98540.745    22.220543    20.207466    17.648788 
     620   -193138.08   -193351.98    213.89709    46.656724    2948.3831    98540.745    22.220238     20.21072    17.578112 
     630   -193138.08   -193352.18    214.09689    46.700306    2945.0897    98540.745    22.219933    20.213974    17.507435 
     640   -193138.08   -193352.68    214.59118    46.808123    2942.0837    98540.745    22.219627    20.217228    17.436757 
     650   -193138.09   -193353.42    215.33126    46.969554     2938.848    98540.745    22.219322    20.220482    17.366079 
     660   -193138.09   -193354.72     216.6318    47.253239    2934.4945    98540.745    22.219017    20.223736    17.295399 
     670   -193138.09   -193356.84    218.75399    47.716144     2928.282    98540.745    22.218712     20.22699     17.22472 
     680   -193138.09   -193359.58    221.49034    48.313017    2920.0494    98540.745    22.218407    20.230244    17.154039 
     690   -193138.09   -193362.49    224.39972    48.947631    2910.2244    98540.745    22.218102    20.233498    17.083357 
     700   -193138.09   -193365.46    227.37319    49.596224    2899.5112    98540.745    22.217796    20.236752    17.012675 
     710   -193138.09    -193368.8    230.71798    50.325814    2888.5983    98540.745    22.217491    20.240006    16.941991 
     720   -193138.09   -193372.81    234.72133    51.199053    2878.0084    98540.745    22.217186     20.24326    16.871307 
     730   -193138.09   -193377.37    239.28405    52.194305     2868.027    98540.745    22.216881    20.246514    16.800621 
     740   -193138.09    -193382.1    244.00781    53.224683    2858.5979    98540.745    22.216576    20.249768    16.729934 
     750   -193138.09   -193386.71    248.62059    54.230856    2849.2827    98540.745     22.21627    20.253022    16.659245 
     760   -193138.09   -193391.38    253.28998    55.249375    2839.3663    98540.745    22.215965    20.256276    16.588555 
     770   -193138.09   -193396.49        258.4    56.364009    2828.1723    98540.745     22.21566     20.25953    16.517864 
     780   -193138.09   -193402.07    263.98094    57.581363    2815.4707    98540.745    22.215355    20.262784     16.44717 
     790   -193138.09   -193407.69    269.60194    58.807455    2801.7244    98540.745    22.215049    20.266038    16.376474 
     800   -193138.08   -193413.01    274.92584     59.96874    2787.8367    98540.745    22.214744    20.269292    16.305776 
     810   -193138.08   -193418.19    280.10228    61.097861    2774.6197    98540.745    22.214439    20.272546    16.235075 
     820   -193138.08   -193423.59    285.50628     62.27662    2762.5181    98540.745    22.214133      20.2758    16.164372 
     830   -193138.08   -193429.33    291.24132    63.527585    2751.6338    98540.745    22.213828    20.279054    16.093665 
     840   -193138.09   -193435.07    296.98263     64.77992    2741.7461    98540.745    22.213523    20.282307    16.022955 
     850   -193138.09   -193440.41    302.32181     65.94454     2732.314    98540.745    22.213217    20.285561    15.952241 
     860   -193138.09   -193445.34    307.24986     67.01948    2722.5778    98540.745    22.212912    20.288815    15.881523 
     870   -193138.09   -193450.25    312.15894    68.090283    2711.9656    98540.745    22.212606    20.292069      15.8108 
     880   -193138.09   -193455.37    317.27979    69.207279    2700.4957    98540.745    22.212301    20.295322    15.740072 
     890   -193138.09   -193460.43    322.34218    70.311522    2688.7379    98540.745    22.211995    20.298576    15.669338 
     900   -193138.09   -193465.03    326.94258    71.314994    2677.5381    98540.745     22.21169     20.30183    15.598598 
     910   -193138.09   -193469.13    331.03781    72.208273    2667.5959    98540.745    22.211384    20.305083    15.527851 
     920   -193138.09   -193473.03    334.93864    73.059149    2659.2409    98540.745    22.211079    20.308337    15.457095 
     930   -193138.09      -193477    338.90836    73.925053    2652.4014    98540.745    22.210773     20.31159    15.386331 
     940   -193138.09   -193480.92    342.83339    74.781208    2646.7148    98540.745    22.210467    20.314843    15.315557 
     950   -193138.09   -193484.41    346.31921    75.541558    2641.6367    98540.745    22.210161    20.318097    15.244772 
     960   -193138.09   -193487.25    349.15566    76.160266    2636.5205    98540.745    22.209855     20.32135    15.173975 
     970   -193138.09    -193489.7    351.60652    76.694863    2630.8084    98540.745    22.209549    20.324603    15.103164 
     980   -193138.09   -193492.15    354.06305      77.2307    2624.4123    98540.745    22.209243    20.327855    15.032339 
     990   -193138.09   -193494.59     356.5067    77.763726    2617.9343    98540.745    22.208936    20.331108    14.961497 
    1000   -193138.09   -193496.66    358.57082    78.213965    2612.3393    98540.745     22.20863     20.33436    14.890638 
    1010   -193138.09   -193498.13    360.04595    78.535732    2608.2418    98540.745    22.208323    20.337612    14.819758 
    1020   -193138.09   -193499.19    361.09954    78.765548    2606.1115    98540.745    22.208017    20.340865    14.748854 
    1030   -193138.09   -193500.15     362.0609    78.975247    2605.5231    98540.745    22.207713    20.344119    14.677921 
    1040   -193138.09   -193501.14     363.0491      79.1908    2605.6935    98540.745     22.20741    20.347373    14.606956 
    1050   -193138.09   -193501.89    363.80265     79.35517    2606.1785    98540.745    22.207107    20.350631    14.535952 
    1060   -193138.09    -193502.1    364.00566    79.399451    2606.3207    98540.745    22.206805    20.353891    14.464906 
    1070   -193138.09   -193501.81    363.71707    79.336502    2605.7273    98540.745    22.206502    20.357154    14.393814 
    1080   -193138.09   -193501.41     363.3206    79.250021    2604.8175    98540.745    22.206198    20.360421    14.322672 
    1090   -193138.09   -193501.11    363.01878    79.184186    2604.0669    98540.745    22.205894     20.36369    14.251478 
    1100   -193138.09   -193500.71    362.62254    79.097756    2604.2363    98540.745    22.205586     20.36696    14.180234 
    1110   -193138.09   -193499.91    361.82158    78.923045    2605.8026    98540.745    22.205273     20.37023    14.108945 
    1120   -193138.07   -193498.59    360.52609    78.640462    2609.2725    98540.745    22.204948    20.373496    14.037625 
    1130   -193138.07   -193497.04    358.97556    78.302251    2613.8177    98540.745    22.204605    20.376751    13.966293 
    1140   -193138.06   -193495.38    357.31766    77.940619    2621.0618    98540.745    22.204239    20.379988    13.894979 
    1150   -193138.01   -193493.22    355.20823    77.480495    2629.9192    98540.745    22.203818    20.383192    13.823789 
    1160   -193137.68    -193489.5    351.81696    76.740767    2640.8181    98540.745    22.203272    20.386336    13.752936 
    1170   -193137.69   -193483.04    345.35381    75.330979    2672.0711    98540.745    22.202397    20.389347     13.68296 
    1180   -193137.65   -193473.25    335.59508    73.202338    2724.3444    98540.745    22.200378    20.392042    13.615788 
    1190   -193137.67   -193472.62    334.94754    73.061091    2700.6568    98540.745    22.196205    20.394271    13.553727 
    1200    -193137.7   -193469.99    332.29144    72.481724    2672.4387    98540.745    22.190503    20.396196    13.495369 
    1210   -193138.16   -193470.49    332.33161    72.490486    2664.0592    98540.745    22.184308    20.397948    13.438503 
    1220   -193138.17    -193472.6    334.42811    72.947789    2651.2877    98540.745    22.177947    20.399517    13.382567 
    1230   -193138.17   -193467.85    329.68508    71.913207    2636.7716    98540.745    22.171553    20.400858    13.327505 
    1240   -193138.13   -193457.48    319.34521    69.657802    2627.0202    98540.745    22.165257    20.401911    13.273376 
    1250   -193138.13   -193447.02    308.88854    67.376921    2628.3388    98540.745    22.159227    20.402585    13.220317 
    1260   -193138.11   -193439.75     301.6436    65.796605    2639.0475    98540.745    22.153659     20.40276    13.168611 
    1270   -193138.11    -193436.7    298.58226    65.128844    2650.0233    98540.745    22.148754    20.402296    13.118608 
    1280    -193138.1   -193438.14    300.04156    65.447157    2658.8171    98540.745    22.144582    20.401173    13.070503 
    1290    -193138.1   -193442.79    304.69658     66.46254    2667.8693    98540.745    22.141056    20.399491    13.024272 
    1300   -193138.11   -193446.28    308.16949    67.220077    2675.5614    98540.745     22.13803    20.397336     12.97985 
    1310    -193137.1   -193442.83    305.73757    66.689609    2685.4761    98540.745     22.13538    20.394674    12.937255 
    1320   -193137.07   -193428.21    291.13915      63.5053    2725.2812    98540.745    22.133006    20.391333    12.896607 
    1330   -193137.91   -193421.46    283.54811     61.84949    2675.4505    98540.745    22.130648    20.387351    12.857684 
    1340   -193137.91   -193413.93     276.0148    60.206271     2655.733    98540.745    22.128085    20.382766    12.820396 
    1350   -193137.93   -193407.95    270.02296    58.899289    2649.2414    98540.745    22.125148    20.377595    12.784748 
    1360   -193137.96   -193404.48    266.52577    58.136458    2648.1729    98540.745    22.121753    20.371931    12.750842 
    1370   -193137.94   -193405.32    267.37488    58.321673    2651.7599    98540.745    22.117924    20.365908    12.718931 
    1380   -193137.95   -193412.61    274.65662    59.910015    2660.1959    98540.745    22.113755    20.359654    12.689259 
    1390   -193137.97   -193424.32    286.35301    62.461315    2674.3223    98540.745    22.109288    20.353138    12.661849 
    1400   -193137.96   -193433.01    295.04579    64.357444     2693.156    98540.745    22.104459      20.3462    12.636501 
    1410   -193137.97   -193434.05    296.08032    64.583103    2709.7426    98540.745     22.09922    20.338763    12.613056 
    1420   -193137.94   -193431.64    293.69142    64.062018    2721.6202    98540.745    22.093628    20.330879    12.591495 
    1430    -193137.3   -193425.55    288.24928    62.874941    2735.4932    98540.745    22.087662    20.322734    12.572084 
    1440   -193137.24   -193402.24    264.99856    57.803333    2786.2432    98540.745    22.080349    20.315603    12.556286 
    1450   -193137.24   -193390.98    253.73922    55.347367    2728.0978    98540.745    22.070816    20.310845    12.545417 
    1460   -193137.29   -193387.02    249.73562    54.474073    2697.9184    98540.745    22.060272    20.307017    12.538003 
    1470   -193137.29    -193386.3    249.01201    54.316234    2678.8896    98540.745    22.049154    20.303379    12.533474 
    1480   -193137.28   -193388.44    251.15565     54.78382    2666.3549    98540.745    22.037543    20.299588    12.531691 
    1490   -193137.35   -193393.97    256.61542    55.974743    2659.4221    98540.745    22.025415    20.295459    12.532575 
    1500   -193137.35   -193402.87    265.51457    57.915887    2662.5826    98540.745    22.012688    20.290954     12.53597 
    1510   -193137.36   -193413.64    276.28071    60.264275    2677.3661    98540.745    21.999206    20.286279    12.541666 
    1520   -193137.37   -193423.07    285.70028    62.318936    2699.1629    98540.745    21.984631    20.282003    12.549624 
    1530   -193137.37   -193430.66    293.29295    63.975102    2713.9804    98540.745    21.968445    20.278953     12.56009 
    1540    -193137.4   -193436.99    299.59381     65.34949    2710.3363    98540.745    21.950312     20.27753    12.573366 
    1550   -193137.37   -193436.01    298.63902    65.141224    2689.5456    98540.745    21.930635     20.27701    12.589666 
    1560   -193137.37   -193431.16    293.79033    64.083593    2661.6809    98540.745     21.91036    20.276256    12.609034 
    1570   -193137.36   -193427.99    290.63206    63.394691    2641.9946    98540.745    21.890315    20.275009    12.631286 
    1580   -193137.32   -193428.48    291.16349    63.510609    2630.2023    98540.745    21.870904    20.273639    12.656278 
    1590   -193137.33   -193434.43    297.09969    64.805454    2623.8924    98540.745    21.852231    20.272603    12.684011 
    1600   -193137.34   -193446.71    309.36589    67.481043    2628.5049    98540.745    21.834197    20.272287    12.714507 
    1610   -193137.41   -193457.92    320.51846     69.91372    2595.5932    98540.745    21.816302    20.273018    12.747711 
    1620   -193137.41   -193457.31    319.90862    69.780697    2599.0561    98540.745    21.798944    20.273692    12.782569 
    1630   -193137.42   -193460.51    323.08949     70.47453    2599.4572    98540.745    21.782139    20.273896    12.818644 
    1640   -193137.43   -193466.87    329.44331     71.86047    2594.3421    98540.745    21.765584    20.273843    12.856041 
    1650   -193137.42   -193471.39    333.96512    72.846799    2584.4163    98540.745    21.749162    20.273611    12.894774 
    1660   -193137.41   -193472.68    335.26746    73.130874     2573.086    98540.745    21.732808    20.273231    12.934793 
    1670   -193137.42   -193474.13    336.71283    73.446148    2560.2575    98540.745    21.716485    20.272711    12.976014 
    1680   -193137.41   -193477.85    340.43745    74.258589    2547.9293    98540.745    21.700166    20.272044    13.018288 
    1690    -193137.4   -193482.44    345.03835    75.262168    2535.5365    98540.745    21.683829    20.271243    13.061448 
    1700   -193137.39   -193485.52    348.13574    75.937794    2526.0089    98540.745    21.667505    20.270295    13.105315 
    1710   -193137.29   -193486.65    349.36253     76.20539    2523.5303    98540.745    21.651257     20.26918    13.149747 
    1720   -193137.29   -193486.56    349.27199    76.185641    2524.6761    98540.745    21.635155    20.267875    13.194662 
    1730   -193137.28   -193477.12    339.84327    74.128982    2614.2503    98540.745    21.619254     20.26637    13.240023 
    1740    -193137.3   -193479.05    341.75185    74.545296     2570.277    98540.745     21.60358    20.264672    13.285789 
    1750    -193137.3    -193485.2    347.90388    75.887219    2524.9425    98540.745    21.588103    20.262808     13.33189 
    1760   -193137.38   -193488.11    350.73125    76.503944    2513.7381    98540.745     21.57275    20.260812    13.378225 
    1770   -193137.38   -193489.41    352.03295     76.78788    2509.9407    98540.745    21.557435    20.258722    13.424687 
    1780   -193137.39   -193489.31    351.92707    76.764785    2514.4917    98540.745    21.542087    20.256572    13.471189 
    1790    -193137.4   -193486.74    349.34058    76.200601    2526.3154    98540.745     21.52666    20.254387    13.517678 
    1800   -193137.41   -193481.17    343.75273     74.98174     2539.982    98540.745    21.511139    20.252181    13.564137 
    1810   -193137.43   -193476.18    338.75547    73.891703    2551.3246    98540.745    21.495534    20.249958    13.610571 
    1820   -193137.44   -193475.82    338.37588    73.808905    2558.2455    98540.745    21.479868    20.247717    13.656993 
    1830   -193137.45    -193476.5    339.05479    73.956994    2558.8252    98540.745    21.464166     20.24546    13.703412 
    1840   -193137.43   -193472.99    335.55258    73.193067    2552.4096    98540.745    21.448447    20.243189    13.749819 
    1850   -193137.42   -193467.28    329.85725    71.950763    2539.9872    98540.745    21.432723    20.240907    13.796191 
    1860   -193137.41   -193462.95    325.53811    71.008641    2526.8848    98540.745    21.416996    20.238618    13.842495 
    1870    -193137.4    -193460.9     323.5046    70.565078    2516.2857    98540.745    21.401267    20.236321    13.888714 
    1880   -193137.39   -193460.98    323.59054    70.583823    2512.1865    98540.745    21.385535    20.234018    13.934846 
    1890   -193137.39   -193463.24    325.84616    71.075835    2517.2022    98540.745    21.369798    20.231709    13.980897 
    1900   -193137.39   -193466.45    329.05981    71.776819    2530.1309    98540.745    21.354057    20.229393    14.026877 
    1910   -193137.41   -193468.84    331.43823    72.295616    2547.8431    98540.745    21.338312     20.22707    14.072797 
    1920   -193137.41   -193469.36    331.94942    72.407121    2564.7233    98540.745    21.322566    20.224741    14.118666 
    1930   -193137.37   -193461.75    324.38137    70.756324    2630.4499    98540.745    21.306818    20.222405    14.164491 
    1940    -193137.4   -193463.57    326.16916     71.14629    2573.3032    98540.745     21.29107    20.220061    14.210279 
    1950   -193137.36   -193449.45    312.09406    68.076131    2508.6246    98540.745    21.275317    20.217709    14.256027 
    1960   -193137.35   -193436.87    299.51398    65.332075    2493.3853    98540.745    21.259557    20.215354     14.30173 
    1970   -193137.36   -193434.11    296.75792    64.730906    2493.0724    98540.745     21.24379    20.212997    14.347391 
    1980   -193137.37   -193441.19     303.8194    66.271205    2508.2039    98540.745    21.228017    20.210641    14.393011 
    1990   -193137.39    -193452.7    315.30378    68.776259    2536.0594    98540.745    21.212238    20.208288     14.43859 
    2000   -193137.42   -193458.84    321.41489    70.109255    2568.3388    98540.745    21.196455    20.205936    14.484128 
    2010   -193137.45   -193450.39     312.9403    68.260719     2593.185    98540.745    21.180669    20.203585    14.529631 
    2020   -193137.45   -193434.21    296.75482     64.73023    2596.9823    98540.745     21.16488    20.201233    14.575103 
    2030   -193137.45   -193432.14    294.69165    64.280195    2581.9724    98540.745    21.149089    20.198883    14.620549 
    2040   -193137.44    -193439.8    302.36059    65.952999    2557.1272    98540.745    21.133296    20.196533    14.665971 
    2050   -193137.42   -193438.48     301.0592    65.669131    2526.6434    98540.745    21.117502    20.194185    14.711369 
    2060   -193137.39   -193428.58     291.1859    63.515497    2500.4634    98540.745    21.101705    20.191838    14.756743 
    2070   -193137.39   -193420.13    282.74912    61.675208    2487.6687    98540.745    21.085908    20.189493    14.802094 
    2080   -193137.39   -193418.45    281.06479     61.30781    2488.8678    98540.745    21.070108    20.187148    14.847423 
    2090    -193137.4   -193423.14    285.73545    62.326608    2500.7292    98540.745    21.054308    20.184803    14.892735 
    2100   -193137.42   -193431.48    294.05893    64.142183    2519.8954    98540.745    21.038507    20.182457    14.938031 
    2110   -193137.46   -193438.38    300.92871    65.640667    2541.2351    98540.745    21.022706    20.180111    14.983314 
    2120   -193137.48   -193435.65    298.16815    65.038514    2556.2191    98540.745    21.006904    20.177765    15.028585 
    2130   -193137.47   -193424.73    287.25914    62.658964    2556.4627    98540.745    20.991102    20.175418    15.073845 
    2140   -193137.46   -193425.51    288.04484    62.830347    2541.4446    98540.745    20.975299    20.173072    15.119094 
    2150   -193137.45   -193438.48    301.03501    65.663854    2515.9553    98540.745    20.959496    20.170725    15.164334 
    2160   -193137.43    -193443.7    306.27785    66.807458    2483.3399    98540.745    20.943693    20.168377    15.209565 
    2170    -193137.4   -193438.98    301.57736    65.782155    2453.0099    98540.745     20.92789     20.16603    15.254785 
    2180   -193137.39   -193434.44    297.05382    64.795449    2434.8969    98540.745    20.912086    20.163682    15.299996 
    2190   -193137.39   -193436.75    299.36748    65.300122    2431.0475    98540.745    20.896281    20.161334    15.345198 
    2200   -193137.39   -193446.37    308.97584    67.395962    2438.9985    98540.745    20.880477    20.158985     15.39039 
    2210    -193137.4   -193458.83     321.4217     70.11074    2456.6173    98540.745    20.864672    20.156637    15.435573 
    2220   -193137.51   -193462.58    325.07123    70.906803    2513.1938    98540.745    20.848867    20.154288    15.480747 
    2230    -193137.4   -193452.21    314.80254    68.666924    2557.2024    98540.745    20.833061    20.151939    15.525913 
    2240    -193137.4   -193460.67    323.26947    70.513789    2431.6627    98540.745    20.817255     20.14959    15.571072 
    2250   -193137.38   -193452.25    314.87042    68.681731    2393.7308    98540.745     20.80145     20.14724    15.616224 
    2260   -193137.38   -193446.48    309.09645    67.422272    2367.2401    98540.745    20.785644    20.144891     15.66137 
    2270   -193137.38   -193448.84    311.46146    67.938145    2355.6195    98540.745    20.769837    20.142542    15.706511 
    2280   -193137.39   -193459.86    322.46952    70.339298    2359.8965    98540.745    20.754031    20.140192    15.751646 
    2290   -193137.42   -193472.29    334.86783    73.043705    2379.2304    98540.745    20.738224    20.137843    15.796776 
    2300   -193137.46   -193472.06    334.60104    72.985511     2402.812    98540.745    20.722418    20.135493    15.841903 
    2310   -193137.47    -193457.7    320.23256    69.851358    2418.8882    98540.745    20.706611    20.133143    15.887025 
    2320   -193137.47   -193457.76    320.28381    69.862536    2421.4587    98540.745    20.690804    20.130793    15.932144 
    2330   -193137.48    -193477.1    339.61509    74.079209    2402.2402    98540.745    20.674997    20.128444     15.97726 
    2340   -193137.45   -193484.32    346.86658    75.660955    2364.8746    98540.745     20.65919    20.126094    16.022373 
    2350   -193137.42   -193476.26    338.83833    73.909778    2324.0416    98540.745    20.643383    20.123744    16.067483 
    2360    -193137.4    -193465.7    328.29814    71.610678    2290.0919    98540.745    20.627576    20.121394    16.112591 
    2370   -193137.39   -193461.31     323.9176    70.655164    2267.7597    98540.745    20.611769    20.119044    16.157695 
    2380   -193137.39   -193466.42    329.02963    71.770237    2257.4416    98540.745    20.595962    20.116695    16.202797 
    2390    -193137.4   -193481.21     343.8122    74.994713    2263.5644    98540.745    20.580154    20.114345    16.247897 
    2400   -193137.42   -193498.31    360.88605    78.718979    2286.2787    98540.745    20.564347    20.111995    16.292994 
    2410   -193137.55    -193498.2    360.65322    78.668194     2354.056    98540.745     20.54854    20.109645    16.338089 
    2420   -193137.39   -193474.37    336.97665    73.503695    2408.2824    98540.745    20.532732    20.107295    16.383181 
    2430   -193137.43   -193496.08    358.64487    78.230117    2282.2397    98540.745    20.516925    20.104945    16.428272 
    2440   -193137.41   -193490.72    353.30916    77.066255    2237.6533    98540.745    20.501118    20.102595     16.47336 
    2450    -193137.4   -193480.67    343.27048    74.876548    2204.6453    98540.745     20.48531    20.100245    16.518446 
    2460   -193137.39   -193476.62    339.23002    73.995215    2189.2803    98540.745    20.469503    20.097896    16.563531 
    2470    -193137.4   -193482.58    345.17307    75.291554    2193.1339    98540.745    20.453696    20.095546    16.608614 
    2480   -193137.43   -193493.48    356.05001    77.664109    2214.3516    98540.745    20.437888    20.093196    16.653696 
    2490   -193137.46   -193497.33    359.87209    78.497807    2243.9161    98540.745    20.422081    20.090846    16.698777 
    2500   -193137.49    -193487.7    350.20881    76.389985    2269.1314    98540.745    20.406274    20.088496    16.743856 
    2510    -193137.5   -193477.78    340.28367    74.225045    2281.5505    98540.745    20.390466    20.086146    16.788935 
    2520    -193137.5   -193482.45    344.95019    75.242939    2271.2785    98540.745    20.374659    20.083796    16.834013 
    2530   -193137.48   -193491.02    353.54244     77.11714    2241.5337    98540.745    20.358851    20.081446     16.87909 
    2540   -193137.44   -193490.49    353.04974    77.009668    2203.5902    98540.745    20.343044    20.079097    16.924166 
    2550   -193137.41   -193481.15    343.74561    74.980189     2167.549    98540.745    20.327237    20.076747    16.969241 
    2560   -193137.39   -193471.71    334.32299     72.92486    2142.4588    98540.745    20.311429    20.074397    17.014314 
    2570   -193137.38   -193470.61    333.22438    72.685223    2134.7634    98540.745    20.295622    20.072047    17.059387 
    2580   -193137.39   -193479.85    342.46039    74.699846    2146.5872    98540.745    20.279815    20.069697    17.104459 
    2590   -193137.41   -193492.25    354.83446    77.398965    2175.6494    98540.745    20.264007    20.067347    17.149529 
    2600   -193137.44   -193492.99    355.54912    77.554851    2213.7676    98540.745      20.2482    20.064997    17.194598 
    2610   -193137.37   -193461.62    324.24439    70.726445    2320.1451    98540.745    20.232392    20.062648    17.239665 
    2620   -193137.49   -193490.28    352.78639    76.952225    2221.8503    98540.745    20.216585    20.060298    17.284731 
    2630   -193137.41   -193486.86    349.44835    76.224109    2164.8793    98540.745    20.200777    20.057948    17.329795 
    2640   -193137.38   -193468.56    331.17572    72.238356    2128.6667    98540.745     20.18497    20.055598    17.374858 
    2650   -193137.37   -193454.16    316.79171    69.100815    2111.9784    98540.745    20.169162    20.053248     17.41992 
    2660   -193137.37   -193451.29    313.91692    68.473746    2115.3818    98540.745    20.153355    20.050898    17.464981 
    2670   -193137.39   -193457.68    320.29332    69.864611    2134.4092    98540.745    20.137547    20.048548     17.51004 
    2680   -193137.41   -193466.46    329.04349     71.77326    2165.9866    98540.745     20.12174    20.046199    17.555099 
    2690   -193137.45   -193469.19    331.74692    72.362949    2201.3386    98540.745    20.105933    20.043849    17.600157 
    2700   -193137.47   -193459.42    321.95282    70.226592    2231.9328    98540.745    20.090125    20.041499    17.645213 
    2710   -193137.46    -193447.4    309.93548    67.605286    2234.4545    98540.745    20.074318    20.039149    17.690269 
    2720   -193137.45   -193452.12    314.67105    68.638241    2206.0226    98540.745     20.05851    20.036799    17.735325 
    2730   -193137.43    -193458.6      321.166    70.054966    2170.5114    98540.745    20.042702    20.034449    17.780379 
    2740   -193137.39   -193451.63    314.23869    68.543934    2132.9249    98540.745    20.026895    20.032099    17.825433 
    2750   -193137.37   -193438.87    301.50247     65.76582    2106.0689    98540.745    20.011087    20.029749    17.870486 
    2760   -193137.36   -193432.88     295.5238     64.46171    2098.1868    98540.745     19.99528    20.027399    17.915539 
    2770   -193137.37   -193437.42    300.05254     65.44955    2109.8435    98540.745    19.979472    20.025049     17.96059 
    2780   -193137.39   -193446.73    309.33289    67.473845    2138.2883    98540.745    19.963665    20.022699    18.005641 
    2790   -193137.42   -193450.37    312.95152    68.263166    2176.2501    98540.745    19.947857     20.02035    18.050691 
    2800   -193137.37   -193430.61    293.24282    63.964168    2287.2699    98540.745     19.93205       20.018     18.09574 
    2810   -193137.47   -193455.19     317.7223    69.303801    2193.2853    98540.745    19.916242     20.01565    18.140788 
    2820    -193137.4   -193449.27    311.87215    68.027726    2145.1806    98540.745    19.900435      20.0133    18.185836 
    2830   -193137.38   -193432.65    295.26993    64.406335     2111.675    98540.745    19.884627     20.01095    18.230882 
    2840   -193137.37   -193419.79    282.41877    61.603149     2092.881    98540.745    19.868819      20.0086    18.275929 
    2850   -193137.37    -193417.1    279.72461    61.015481    2088.3412    98540.745    19.853012     20.00625    18.320974 
    2860   -193137.39   -193424.74     287.3511    62.679024    2099.1942    98540.745    19.837204      20.0039     18.36602 
    2870   -193137.41   -193436.42      299.007    65.221491    2124.5839    98540.745    19.821397     20.00155    18.411065 
    2880   -193137.45    -193438.9    301.45073    65.754535    2155.7537    98540.745    19.805589      19.9992    18.456109 
    2890   -193137.47   -193424.03    286.55989     62.50644    2179.7818    98540.745    19.789782     19.99685    18.501154 
    2900   -193137.46   -193412.91    275.44816    60.082671    2188.2205    98540.745    19.773974      19.9945    18.546198 
    2910   -193137.47   -193427.14     289.6706    63.184969    2175.5303    98540.745    19.758166     19.99215    18.591242 
    2920   -193137.45   -193439.85    302.40028    65.961655    2144.4812    98540.745    19.742359      19.9898    18.636286 
    2930   -193137.41   -193434.77    297.36456     64.86323     2106.499    98540.745    19.726551     19.98745    18.681329 
    2940   -193137.38   -193422.07     284.6886    62.098261    2074.3868    98540.745    19.710744    19.985099    18.726373 
    2950   -193137.37   -193413.79    276.41955    60.294558      2055.53    98540.745    19.694936    19.982749    18.771416 
    2960   -193137.37   -193415.57    278.19732    60.682338    2050.5666    98540.745    19.679128    19.980399    18.816459 
    2970   -193137.38   -193427.89    290.51397     63.36893    2059.9287    98540.745    19.663321    19.978049    18.861502 
    2980   -193137.39   -193445.55    308.15284    67.216444    2084.9571    98540.745    19.647513    19.975699    18.906544 
    2990   -193137.43   -193454.81    317.38507    69.230243    2118.9308    98540.745    19.631706    19.973349    18.951587 
    3000   -193137.36   -193426.66    289.30195    63.104556    2223.3419    98540.745    19.615898    19.970999    18.996629 
    3010   -193137.47   -193449.85    312.38915    68.140498    2122.3246    98540.745     19.60009    19.968649    19.041671 
    3020   -193137.39   -193447.61     310.2254    67.668525    2060.8329    98540.745    19.584283    19.966299    19.086713 
    3030   -193137.36   -193434.77    297.40949     64.87303    2020.9621    98540.745    19.568475    19.963949    19.131754 
    3040   -193137.35   -193426.79    289.44576    63.135925     1999.159    98540.745    19.552667    19.961599    19.176796 
    3050   -193137.35   -193431.56     294.2112    64.175396    1998.0669    98540.745     19.53686    19.959249    19.221838 
    3060   -193137.37   -193447.08    309.70384    67.554761    2017.8409    98540.745    19.521052    19.956899    19.266879 
    3070   -193137.41    -193460.8    323.38948    70.539966    2052.8169    98540.745    19.505245    19.954549     19.31192 
    3080   -193137.45   -193456.76    319.30448    69.648918    2088.5613    98540.745    19.489437    19.952199    19.356962 
    3090   -193137.46   -193439.41    301.94729    65.862847    2116.3632    98540.745    19.473629    19.949849    19.402003 
    3100   -193137.47   -193444.32    306.85327    66.932974    2109.3594    98540.745    19.457822    19.947499    19.447044 
    3110   -193137.45   -193463.71    326.25196    71.164352    2072.3929    98540.745    19.442014    19.945149    19.492085 
    3120   -193137.41   -193467.02    329.60368    71.895452    2028.2335    98540.745    19.426206    19.942799    19.537127 
    3130   -193137.39   -193456.37    318.98183     69.57854    1986.0259    98540.745    19.410399    19.940448    19.582168 
    3140   -193137.37   -193445.81    308.43736    67.278507    1957.5227    98540.745    19.394591    19.938098    19.627209 
    3150   -193137.36   -193445.89    308.53012     67.29874    1948.3324    98540.745    19.378784    19.935748     19.67225 
    3160   -193137.38   -193459.15    321.77371    70.187524    1960.2682    98540.745    19.362976    19.933398    19.717291 
    3170   -193137.41   -193477.77    340.35923    74.241527    1992.1015    98540.745    19.347168    19.931048    19.762332 
    3180    -193137.5    -193482.7    345.20199    75.297864    2045.7327    98540.745    19.331361    19.928698    19.807373 
    3190   -193137.37   -193450.79    313.42262    68.365925    2140.4784    98540.745    19.315553    19.926348    19.852414 
    3200   -193137.45   -193485.03    347.58145    75.816887    2029.6459    98540.745    19.299746    19.923998    19.897455 
    3210   -193137.41   -193483.62    346.20383    75.516391    1984.6626    98540.745    19.283938    19.921648    19.942496 
    3220   -193137.39   -193469.81     332.4252    72.510901    1949.2306    98540.745     19.26813    19.919298    19.987537 
    3230   -193137.38   -193459.22    321.84217    70.202456    1931.8918    98540.745    19.252323    19.916948    20.032579 
    3240   -193137.39   -193459.15     321.7605    70.184643    1934.4145    98540.745    19.236515    19.914598     20.07762 
    3250    -193137.4   -193467.48    330.07408    71.998058    1953.4459    98540.745    19.220707    19.912248    20.122661 
    3260   -193137.42   -193477.15    339.73148    74.104599    1983.5795    98540.745      19.2049    19.909898    20.167702 
    3270   -193137.45   -193481.59    344.13798    75.065774    2016.8889    98540.745    19.189092    19.907548    20.212743 
    3280   -193137.48   -193478.06    340.58844    74.291524    2045.6828    98540.745    19.173285    19.905197    20.257784 
    3290   -193137.47   -193472.48    335.00981    73.074674    2053.6671    98540.745    19.157477    19.902847    20.302825 
    3300   -193137.45   -193478.46    341.00959    74.383388    2028.7161    98540.745    19.141669    19.900497    20.347866 
    3310   -193137.43   -193486.11    348.67779    76.056029    1994.6705    98540.745    19.125862    19.898147    20.392907 
    3320    -193137.4   -193481.91     344.5135    75.147686    1958.4597    98540.745    19.110054    19.895797    20.437948 
    3330   -193137.37   -193471.45    334.07543     72.87086    1931.4398    98540.745    19.094246    19.893447    20.482989 
    3340   -193137.36   -193467.14    329.77388    71.932576    1924.7416    98540.745    19.078439    19.891097     20.52803 
    3350   -193137.37    -193473.4    336.03039    73.297289    1939.4685    98540.745    19.062631    19.888747    20.573071 
    3360   -193137.39    -193483.5    346.11286    75.496549     1972.687    98540.745    19.046824    19.886397    20.618112 
    3370   -193137.49   -193480.06    342.56657    74.723008    2059.5785    98540.745    19.031016    19.884047    20.663153 
    3380    -193137.4   -193472.77    335.37245    73.153777    2116.2017    98540.745    19.015208    19.881697    20.708194 
    3390   -193137.42   -193494.75    357.32694    77.942643    2011.3659    98540.745    18.999401    19.879347    20.753235 
    3400    -193137.4   -193487.81    350.41441    76.434832    1985.0787    98540.745    18.983593    19.876997    20.798276 
    3410   -193137.39   -193474.68    337.29126    73.572321     1966.503    98540.745    18.967785    19.874647    20.843317 
    3420   -193137.39    -193465.9    328.51384    71.657728     1960.955    98540.745    18.951978    19.872297    20.888359 
    3430   -193137.39   -193465.16    327.76659    71.494732    1969.2872    98540.745     18.93617    19.869946      20.9334 
    3440   -193137.41   -193470.49    333.08257    72.654291    1989.6452    98540.745    18.920363    19.867596    20.978441 
    3450   -193137.44   -193475.68    338.23717    73.778649    2017.6955    98540.745    18.904555    19.865246    21.023482 
    3460   -193137.47   -193473.22    335.74635    73.235333    2044.8177    98540.745    18.888747    19.862896    21.068523 
    3466   -193137.48   -193467.28    329.80524    71.939417    2056.9732    98540.745    18.879263    19.861486    21.095547 
Loop time of 504.089 on 1 procs for 2858 steps with 1539 atoms

Performance: 0.049 ns/day, 489.940 hours/ns, 5.670 timesteps/s
99.2% CPU use with 1 MPI tasks x no OpenMP threads

MPI task timing breakdown:
Section |  min time  |  avg time  |  max time  |%varavg| %total
---------------------------------------------------------------
Pair    | 465.72     | 465.72     | 465.72     |   0.0 | 92.39
Bond    | 0.0015755  | 0.0015755  | 0.0015755  |   0.0 |  0.00
Neigh   | 0.73058    | 0.73058    | 0.73058    |   0.0 |  0.14
Comm    | 0.15441    | 0.15441    | 0.15441    |   0.0 |  0.03
Output  | 0.18761    | 0.18761    | 0.18761    |   0.0 |  0.04
Modify  | 37.272     | 37.272     | 37.272     |   0.0 |  7.39
Other   |            | 0.02339    |            |       |  0.00

Nlocal:    1539 ave 1539 max 1539 min
Histogram: 1 0 0 0 0 0 0 0 0 0
Nghost:    5964 ave 5964 max 5964 min
Histogram: 1 0 0 0 0 0 0 0 0 0
Neighs:    311955 ave 311955 max 311955 min
Histogram: 1 0 0 0 0 0 0 0 0 0

Total # of neighbors = 311955
Ave neighs/atom = 202.7
Ave special neighs/atom = 0
Neighbor list builds = 28
Dangerous builds not checked

#Exit the simulation
unfix		qeq
unfix		dyn
unfix		frags
unfix		bonds
clear



Please see the log.cite file for references relevant to this simulation

Total wall time: 0:10:36
