/groups/wag/pkozlows/miniconda3/envs/pyscf/lib/python3.11/site-packages/pyscf/dft/libxc.py:771: UserWarning: Since PySCF-2.3, B3LYP (and B3P86) are changed to the VWN-RPA variant, corresponding to the original definition by Stephens et al. (issue 1480) and the same as the B3LYP functional in Gaussian. To restore the VWN5 definition, you can put the setting "B3LYP_WITH_VWN5 = True" in pyscf_conf.py
  warnings.warn('Since PySCF-2.3, B3LYP (and B3P86) are changed to the VWN-RPA variant, '
/central/home/pkozlows/ch121b/gan/dft/g0w0/pbe/dzvp/222/2/dz2g.py:8: UserWarning: Use ase.build.bulk() instead
  ase_cell = bulk('GaN', 'wurtzite', a=3.19, c=5.19)
#INFO: **** input file is /central/home/pkozlows/ch121b/gan/dft/g0w0/pbe/dzvp/222/2/dz2g.py ****
import os
import numpy as np
import pyscf.pbc.tools.pyscf_ase as pyscf_ase
from ase.lattice import bulk
from pyscf.pbc import gto, scf, dft
from pyscf.pbc.gw import krgw_ac

ase_cell = bulk('GaN', 'wurtzite', a=3.19, c=5.19)

cell = gto.Cell()
cell.atom = pyscf_ase.ase_atoms_to_pyscf(ase_cell)
cell.a = np.array(ase_cell.cell)
cell.exp_to_discard = 0.1

cell.basis = 'gth-dzvp'
cell.pseudo = 'gth-pade'
cell.verbose = 5
cell.rcut = 93
cell.build()

kpts = cell.make_kpts([2,2,2])
kmf = dft.KRKS(cell).density_fit()
kmf.kpts = kpts
kmf.xc = 'pbe'
kmf.kernel()

# Default is AC frequency integration
mygw = krgw_ac.KRGWAC(kmf)
mygw.kernel()

# # Extracting HOMO and LUMO energies
nocc = cell.nelectron // 2  # Number of occupied orbitals

au2ev = 27.211

dft_homo = max(kmf.mo_energy[0][:nocc])
dft_lumo = min(kmf.mo_energy[0][nocc:])
dft_gap = dft_lumo - dft_homo
print("DFT HOMO energy:", dft_lumo*au2ev)
print("DFT LUMO energy:", dft_homo*au2ev)
print("DFT Band gap at Gamma point [eV]:", dft_gap*au2ev)

gw_homo = max(mygw.mo_energy[0][:nocc])
gw_lumo = min(mygw.mo_energy[0][nocc:])
gw_gap = gw_lumo - gw_homo
print("GW HOMO energy:", gw_lumo*au2ev)
print("GW LUMO energy:", gw_homo*au2ev)
print("GW Band gap at Gamma point [eV]:", gw_gap*au2ev)
#INFO: ******************** input file end ********************


System: uname_result(system='Linux', node='hpc-83-35.cm.cluster', release='3.10.0-1160.25.1.el7.x86_64', version='#1 SMP Wed Apr 28 21:49:45 UTC 2021', machine='x86_64')  Threads 25
Python 3.11.5 (main, Sep 11 2023, 13:54:46) [GCC 11.2.0]
numpy 1.26.0  scipy 1.11.3
Date: Wed Nov 29 01:36:07 2023
PySCF version 2.4.0
PySCF path  /groups/wag/pkozlows/miniconda3/envs/pyscf/lib/python3.11/site-packages/pyscf

[ENV] PYSCF_CONFIG_FILE /home/pkozlows
[CONFIG] conf_file /home/pkozlows/.pyscf_conf.py
[INPUT] verbose = 5
[INPUT] max_memory = 1466904 
[INPUT] num. atoms = 4
[INPUT] num. electrons = 36
[INPUT] charge = 0
[INPUT] spin (= nelec alpha-beta = 2S) = 0
[INPUT] symmetry False subgroup None
[INPUT] Mole.unit = angstrom
[INPUT] Symbol           X                Y                Z      unit          X                Y                Z       unit  Magmom
[INPUT]  1 Ga     0.000000000000   0.000000000000   0.000000000000 AA    0.000000000000   0.000000000000   0.000000000000 Bohr   0.0
[INPUT]  2 N     -0.000000000000   1.841747358715   0.643929030186 AA   -0.000000000000   3.480398098612   1.216849510709 Bohr   0.0
[INPUT]  3 Ga    -0.000000000000   1.841747358715   2.595000000000 AA   -0.000000000000   3.480398098612   4.903839293246 Bohr   0.0
[INPUT]  4 N      0.000000000000   0.000000000000   3.238929030186 AA    0.000000000000   0.000000000000   6.120688803955 Bohr   0.0
[INPUT] ---------------- BASIS SET ---------------- 
[INPUT] l, kappa, [nprim/nctr], expnt,             c_1 c_2 ...
[INPUT] Ga
[INPUT] 0    0    [6    /2   ]  7.06665397037     0.00403882881 -0.031816598052
                                3.42836918        -0.04992601521 0.005769897361
                                1.43006411438     0.270487560795 0.375790997895
                                0.571610928613    0.114461485481 0.388650732034
                                0.232196966975    -0.765662388169 -1.77913961825
                                0.076561670688    -0.4118900947 1.82974373073
[INPUT] 1    0    [6    /2   ]  7.06665397037     0.000167446202 0.029367472355
                                3.42836918        0.003362568505 -0.090542574365
                                1.43006411438     0.130532105798 -0.084206693559
                                0.571610928613    -0.096032824634 0.052258004145
                                0.232196966975    -0.807329497232 1.28873241299
                                0.076561670688    -0.419386452377 -1.21706825483
[INPUT] 2    0    [6    /2   ]  7.06665397037     -0.311164169605 -0.152377671375
                                3.42836918        -0.386388805667 -0.200456714008
                                1.43006411438     -0.341437057173 -0.304563164958
                                0.571610928613    -0.20460821239 0.349719373167
                                0.232196966975    -0.056129936831 0.455579311293
                                0.076561670688    -0.001205250841 0.817649971475
[INPUT] 3    0    [6    /1   ]  7.06665397037     0.008402101637
                                3.42836918        -0.016601774058
                                1.43006411438     0.049257564549
                                0.571610928613    0.451920686398
                                0.232196966975    0.322063208269
                                0.076561670688    1.01855320748
[INPUT] N
[INPUT] 0    0    [4    /2   ]  6.1526903413      0.1506300537    0
                                1.823633228       -0.0360100734    0
                                0.567662887       -0.6942023212    0
                                0.1628222852      -0.3878929987    1
[INPUT] 1    0    [4    /2   ]  6.1526903413      -0.0950603476    0
                                1.823633228       -0.2918864295    0
                                0.567662887       -0.473905005    0
                                0.1628222852      -0.389341867    1
[INPUT] 2    0    [1    /1   ]  0.817                1

Ewald components = 6.77773183084737, -128.779455527716, 5.42224205397643
nuclear repulsion = -116.579481642892
number of shells = 14
number of NR pGTOs = 234
number of NR cGTOs = 76
basis = gth-dzvp
ecp = {}
CPU time:         1.19
Discarded 8 diffused primitive functions, 0 contracted functions
lattice vectors  a1 [6.028226337, 0.000000000, 0.000000000]
                 a2 [-3.014113169, 5.220597148, 0.000000000]
                 a3 [0.000000000, 0.000000000, 9.807678586]
dimension = 3
low_dim_ft_type = None
Cell volume = 308.657
exp_to_discard = 0.1
rcut = 93 (nimgs = [18 18 10])
lattice sum = 20447 cells
precision = 1e-08
pseudo = gth-pade
ke_cutoff = 887.7119060369721
    = [ 83  83 133] mesh (916237 PWs)


******** <class 'pyscf.pbc.dft.krks.KRKS'> ********
method = KRKS
initial guess = minao
damping factor = 0
level_shift factor = 0
DIIS = <class 'pyscf.scf.diis.CDIIS'>
diis_start_cycle = 1
diis_space = 8
SCF conv_tol = 1e-07
SCF conv_tol_grad = None
SCF max_cycles = 50
direct_scf = True
direct_scf_tol = 1e-13
chkfile to save SCF result = /tmp/tmpppxtqbx3
max_memory 1466904 MB (current use 106 MB)


******** PBC SCF flags ********
N kpts = 8
kpts = [[0.         0.         0.        ]
 [0.         0.         0.3203197 ]
 [0.         0.60176883 0.        ]
 [0.         0.60176883 0.3203197 ]
 [0.5211471  0.30088442 0.        ]
 [0.5211471  0.30088442 0.3203197 ]
 [0.5211471  0.90265325 0.        ]
 [0.5211471  0.90265325 0.3203197 ]]
Exchange divergence treatment (exxdiv) = ewald
Ewald components = 8.76453321006536e-07, -0.162059015555054, 0.068912395876923
    madelung (= occupied orbital energy shift) = 0.18629148644961965
    Total energy shift due to Ewald probe charge = -1/2 * Nelec*madelung = -3.35324675609
DF object = <pyscf.pbc.df.df.GDF object at 0x7f3418850850>
XC functionals = pbe
small_rho_cutoff = 1e-07
radial grids: 
    Treutler-Ahlrichs [JCP 102, 346 (1995); DOI:10.1063/1.469408] (M4) radial grids
    
becke partition: Becke, JCP 88, 2547 (1988); DOI:10.1063/1.454033
pruning grids: <function nwchem_prune at 0x7f34193745e0>
grids dens level: 3
symmetrized grids: False
atomic radii adjust function: <function treutler_atomic_radii_adjust at 0x7f3419374ae0>
Set gradient conv threshold to 0.000316228
kmesh for bvk-cell = [2 2 2]


******** <class 'pyscf.pbc.df.rsdf_builder._RSNucBuilder'> ********
mesh = [11 11 15] (1815 PWs)
ke_cutoff = 10.055261543215941
omega = 0.39277250490442145
exclude_d_aux = False
exclude_dd_block = True
j2c_eig_always = False
has_long_range = True
Set _RSNucBuilder.direct_scf_tol to 7.81e-15
rs_cell.nbas 14 nao 76
No. smooth_bas in rs_cell 0
sup-mol nbas = 4129 cGTO = 22632 pGTO = 61517
sup-mol-ft nbas = 4027 cGTO = 21846 pGTO = 58631
    CPU time for int3c kernel initialization      0.96 sec, wall time      0.04 sec
Set ft_ao cutoff to 4.30028e-11
kmesh for bvk-cell = [2 2 2]
sup-mol nbas = 2573 cGTO = 14036 pGTO = 38645
    CPU time for int3c kernel initialization      0.74 sec, wall time      0.03 sec
    CPU time for int3c kernel initialization      0.70 sec, wall time      0.03 sec
    CPU time for get_pp     43.07 sec, wall time      1.83 sec
atom Ga rad-grids = 90, ang-grids = [ 50  50  50  50  50  50  50  50  50  50  50  50  50  50  50  50  50  50
  50  50  50  50  50  50  50  50  50  50  50  86  86  86  86  86  86  86
  86  86  86  86  86  86  86  86  86 350 350 350 350 350 350 350 350 350
 350 350 434 434 434 434 434 434 434 434 434 434 434 434 434 434 434 434
 434 434 434 434 434 350 350 350 350 350 350 350 350 350 350 350 350 350]
atom N rad-grids = 75, ang-grids = [ 50  50  50  50  50  50  50  50  50  50  50  50  50  50  50  50  50  50
  50  50  50  50  50  86  86  86  86  86  86  86  86  86 266 266 266 266
 266 266 266 302 302 302 302 302 302 302 302 302 302 302 302 302 302 302
 302 302 302 302 266 266 266 266 266 266 266 266 266 266 266 266 266 266
 266 266 266]
tot grids = 69179
cell vol = 308.656876  sum(weights) = 308.656992
Drop grids 20233
    CPU time for setting up grids     44.65 sec, wall time      1.80 sec
nelec by numeric integration = 35.999849988213406
    CPU time for vxc     85.72 sec, wall time      3.45 sec


******** <class 'pyscf.pbc.df.df.GDF'> ********
auxbasis = None
exp_to_discard = 0.1
_cderi_to_save = /tmp/tmpqv93231k
len(kpts) = 8
Even tempered Gaussians are generated as DF auxbasis for  Ga N
  ETB auxbasis for Ga  [[0, [7.4303029432, 1]], [0, [3.7151514716, 1]], [0, [1.8575757358, 1]], [0, [0.9287878679, 1]], [0, [0.46439393395, 1]], [1, [7.4303029432, 1]], [1, [3.7151514716, 1]], [1, [1.8575757358, 1]], [1, [0.9287878679, 1]], [1, [0.46439393395, 1]], [2, [7.4303029432, 1]], [2, [3.7151514716, 1]], [2, [1.8575757358, 1]], [2, [0.9287878679, 1]], [2, [0.46439393395, 1]], [3, [7.4303029432, 1]], [3, [3.7151514716, 1]], [3, [1.8575757358, 1]], [3, [0.9287878679, 1]], [3, [0.46439393395, 1]], [4, [7.4303029432, 1]], [4, [3.7151514716, 1]], [4, [1.8575757358, 1]], [4, [0.9287878679, 1]], [4, [0.46439393395, 1]], [5, [7.4303029432, 1]], [5, [3.7151514716, 1]], [5, [1.8575757358, 1]], [5, [0.9287878679, 1]], [5, [0.46439393395, 1]], [6, [7.4303029432, 1]], [6, [3.7151514716, 1]], [6, [1.8575757358, 1]], [6, [0.9287878679, 1]], [6, [0.46439393395, 1]]]
  ETB auxbasis for N  [[0, [10.4206262528, 1]], [0, [5.2103131264, 1]], [0, [2.6051565632, 1]], [0, [1.3025782816, 1]], [0, [0.6512891408, 1]], [0, [0.3256445704, 1]], [1, [10.4206262528, 1]], [1, [5.2103131264, 1]], [1, [2.6051565632, 1]], [1, [1.3025782816, 1]], [1, [0.6512891408, 1]], [1, [0.3256445704, 1]], [2, [10.4206262528, 1]], [2, [5.2103131264, 1]], [2, [2.6051565632, 1]], [2, [1.3025782816, 1]], [2, [0.6512891408, 1]], [2, [0.3256445704, 1]], [3, [2.9178162465339725, 1]], [3, [1.4589081232669863, 1]], [3, [0.7294540616334931, 1]], [4, [1.634, 1]]]
num shells = 114, num cGTOs = 658
Drop 0 primitive fitting functions
make aux basis, num shells = 114, num cGTOs = 658
auxcell.rcut 12.042448909537999
kmesh for bvk-cell = [2 2 2]


******** <class 'pyscf.pbc.df.rsdf_builder._RSGDFBuilder'> ********
mesh = [11 11 15] (1815 PWs)
ke_cutoff = 10.055261543215941
omega = 0.3681660464171422
exclude_d_aux = True
exclude_dd_block = True
j2c_eig_always = False
has_long_range = True
Set _RSGDFBuilder.direct_scf_tol to 7.81e-15
rs_cell.nbas 14 nao 76
No. smooth_bas in rs_cell 0
rs_cell.nbas 114 nao 658
No. smooth_bas in rs_cell 0
sup-mol nbas = 5248 cGTO = 28753 pGTO = 77834
sup-mol-ft nbas = 4027 cGTO = 21846 pGTO = 58631
    CPU time for int3c kernel initialization      1.07 sec, wall time      0.04 sec
    CPU time for pass1: real space int3c2e    299.81 sec, wall time     19.56 sec
Set ft_ao cutoff to 4.30028e-11
Set 2c2e integrals precision 1e-12, mesh [11 11 15]
    CPU time for int2c2e      7.01 sec, wall time      0.29 sec
    CPU time for pass2: AFT int3c2e     50.44 sec, wall time      2.09 sec
    CPU time for get_j     15.75 sec, wall time      0.64 sec
    CPU time for vj and vk    368.38 sec, wall time     22.38 sec
Ewald components = 6.77773183084737, -128.779455527716, 5.42224205397643
E1 = (-88.12776786519919-2.288723813644401e-17j)  Ecoul = 61.469643259921114  Exc = -25.5413219154938
init E= -168.778928163664
cond(S) = [33729.9047626  31024.52662328 33527.77580558 30409.00217389
 33527.77580538 30409.00217399 33527.77580545 30409.00217397]
    CPU time for initialize scf    522.86 sec, wall time     28.83 sec
HOMO = 0.246375947496  LUMO = 0.441060158909
     k-point                  mo_energy
   0 ( 0.000  0.000  0.000)   [-0.30865876 -0.26729483 -0.04089938 -0.04058734 -0.04057866 -0.03557145
 -0.0355677  -0.01750771 -0.01748299 -0.01293061 -0.01289958 -0.00093619
  0.05354581  0.21717167  0.21717701  0.24496461  0.24637352  0.24637595] [ 0.44106016  0.53835419  0.64776466  0.76126829  0.76127454  0.79088864
  0.81891231  0.81893226  1.11206162  1.11210783  1.18759251  1.28000246
  1.28004424  1.28669847  1.28670212  1.33105811  1.35118391  1.43335791
  1.43336975  1.4716937   1.50671589  1.63265725  1.63268229  1.92321908
  1.92322493  1.98059784  1.980601    1.99200674  2.05463313  2.05463443
  2.15764697  2.26880322  2.29807705  2.34176771  2.36123555  2.36124463
  2.4308111   2.43081806  2.57090752  2.57541311  2.57542479  2.62114951
  2.92101797  2.92101855  3.01814437  3.19248841  3.24940554  3.24946101
  3.30269158  3.30269809  6.09968067  6.12145426 10.39000511 10.4194929
 10.41951082 10.50107839 10.5010862  10.71327666]
   1 ( 0.000  0.000  0.500)   [-0.28899889 -0.28899866 -0.03858462 -0.03858438 -0.03857789 -0.03857744
 -0.03570203 -0.03570167 -0.0148249  -0.01482467 -0.01479767 -0.01479748
  0.15624318  0.15624381  0.2317734   0.23177348  0.23177731  0.2317774 ] [ 0.50443775  0.50443978  0.6827725   0.68277492  0.78334241  0.78334438
  0.78334893  0.78334967  1.1695615   1.1695644   1.16961332  1.16961517
  1.2755464   1.27555297  1.38346043  1.38346483  1.40165769  1.40165872
  1.40167358  1.4016753   1.68898096  1.68898263  1.68900888  1.68901064
  1.80541836  1.80541958  2.14576074  2.14576133  2.14576175  2.14576275
  2.31957362  2.3195765   2.35019148  2.3501936   2.38936288  2.38936364
  2.38936472  2.38936523  2.58069024  2.5806906   2.67338592  2.6733871
  2.67339171  2.67339239  2.95348226  2.95348306  3.27500716  3.27500757
  3.27503487  3.27503546  6.10423453  6.10423481 10.42010144 10.42010368
 10.42011025 10.42011121 10.4299785  10.42997875]
   2 ( 0.000  0.500  0.000)   [-0.26860437 -0.25571208 -0.03857852 -0.03471789 -0.02575877 -0.02536347
 -0.02257584 -0.01922829 -0.0136419  -0.01150224 -0.00159587 -0.00114813
  0.07640311  0.10885326  0.13522627  0.16738419  0.19485715  0.21754402] [ 0.56275522  0.59783319  0.62279972  0.6249527   0.72117496  0.79259517
  0.82796856  0.85655192  0.9007616   1.10971773  1.16772361  1.24861234
  1.31116738  1.37338429  1.39106146  1.40489525  1.44639571  1.44979808
  1.51448209  1.60436849  1.61359843  1.70119028  1.73411529  1.82986123
  1.93923296  1.95926987  2.00789895  2.01790834  2.13916118  2.15893647
  2.19209588  2.23525318  2.29668054  2.30246179  2.41896705  2.50424848
  2.58682182  2.60029112  2.63428271  2.76607612  2.78513574  2.80421701
  2.9177166   2.96224132  3.01937229  3.02587073  3.08148691  3.16071078
  3.21642006  3.24245742  6.11301174  6.12353261  9.6301867  10.24582682
 10.32827535 10.49454335 10.78692435 10.84400447]
   3 ( 0.000  0.500  0.500)   [-0.26138698 -0.26138694 -0.03731788 -0.03731734 -0.02879925 -0.02879899
 -0.02122567 -0.02122538 -0.01304667 -0.01304631 -0.00037522 -0.00037487
  0.0747006   0.07470133  0.19216397  0.19216422  0.19443453  0.19443482] [ 0.5625348   0.56253898  0.63341449  0.63341665  0.74163639  0.74163678
  0.82532065  0.82532092  0.9894067   0.98940948  1.24613786  1.24613996
  1.3157087   1.31571089  1.38809046  1.38809179  1.41936324  1.41936382
  1.60841681  1.60841754  1.69302429  1.69302549  1.8586681   1.85866848
  1.95085442  1.95085631  2.08417398  2.08417435  2.09436115  2.09436218
  2.1592607   2.15926163  2.2476649   2.2476681   2.53154734  2.53154817
  2.65562455  2.65562477  2.68863277  2.68863451  2.82220555  2.82220802
  2.83787273  2.83787364  2.93556     2.93556049  3.12716582  3.12716708
  3.16866859  3.16866981  6.11551646  6.11551685  9.81261297  9.81261492
 10.49259204 10.4925922  10.61590967 10.61591097]
   4 ( 0.500  0.000  0.000)   [-0.26860512 -0.25571698 -0.03859946 -0.03470052 -0.02575677 -0.02537387
 -0.0225679  -0.01923576 -0.013635   -0.01148453 -0.00158267 -0.00116642
  0.07640675  0.10885687  0.13523574  0.16738977  0.19484674  0.21754919] [ 0.56274853  0.59779583  0.62279899  0.62493676  0.72120126  0.79260129
  0.82798481  0.85656789  0.90077468  1.1097043   1.16776645  1.24858967
  1.31119073  1.37337332  1.39106748  1.40488916  1.44642064  1.44981274
  1.51442295  1.60436918  1.61360854  1.70119424  1.73418036  1.82986951
  1.93925881  1.9592325   2.00789502  2.01787995  2.13915909  2.158927
  2.1920866   2.2352855   2.29669725  2.30248757  2.41896489  2.50424767
  2.58683397  2.60030631  2.63428092  2.76609641  2.78511177  2.80424458
  2.91771557  2.96225833  3.01938506  3.02586123  3.08149918  3.16065214
  3.21641973  3.24249284  6.11301297  6.12353333  9.63016982 10.2458027
 10.32828029 10.4945716  10.78692161 10.84399933]
   5 ( 0.500  0.000  0.500)   [-0.26138978 -0.26138962 -0.03733128 -0.03733105 -0.02878431 -0.02878401
 -0.02123061 -0.02123016 -0.01303669 -0.01303652 -0.0003771  -0.00037678
  0.07470398  0.07470483  0.19216952  0.19216977  0.1944336   0.19443394] [ 0.56251897  0.56252144  0.63341378  0.633416    0.74164288  0.741645
  0.82533167  0.82533193  0.98939077  0.98939496  1.24617168  1.24617316
  1.31572821  1.31572968  1.38808317  1.38808619  1.41936429  1.41936517
  1.60841224  1.60841309  1.6930472   1.69304864  1.85866364  1.85866509
  1.95087371  1.950875    2.08418181  2.08418235  2.09433439  2.09433529
  2.1592412   2.15924224  2.2477096   2.24771157  2.53152847  2.53152956
  2.65562744  2.65562848  2.68864392  2.68864426  2.82223426  2.82223582
  2.83787409  2.83787527  2.9355564   2.93555732  3.12718927  3.12719032
  3.16864664  3.16864744  6.11551755  6.11551782  9.81258218  9.81258311
 10.49261046 10.49261084 10.61591145 10.61591189]
   6 ( 0.500  0.500  0.000)   [-0.26860501 -0.25571696 -0.03859941 -0.03470073 -0.02575666 -0.02537382
 -0.02256804 -0.01923566 -0.01363503 -0.01148459 -0.00158261 -0.00116639
  0.07640657  0.108857    0.13523583  0.16738944  0.19484645  0.2175491 ] [ 0.562749    0.59779624  0.62279874  0.62493569  0.72120186  0.79260046
  0.82798368  0.85656659  0.90077412  1.10970607  1.16776487  1.24859258
  1.31118968  1.37337172  1.39106885  1.40489037  1.44641979  1.44981224
  1.51442388  1.60436933  1.6136086   1.70119395  1.73417921  1.82986922
  1.93925896  1.95923238  2.00789531  2.01788022  2.13915864  2.15892797
  2.19208692  2.23528456  2.29669689  2.30248582  2.41896453  2.50424803
  2.58683471  2.60030786  2.63428066  2.76609569  2.78511295  2.80424352
  2.91771551  2.962257    3.01938345  3.02586216  3.08149979  3.1606522
  3.21642057  3.24249096  6.11301302  6.12353341  9.63016919 10.24580246
 10.3282795  10.49457178 10.7869219  10.84399879]
   7 ( 0.500  0.500  0.500)   [-0.26138967 -0.26138958 -0.0373311  -0.03733105 -0.02878443 -0.02878427
 -0.02123046 -0.02123023 -0.01303672 -0.01303656 -0.00037703 -0.00037672
  0.07470399  0.07470457  0.19216933  0.19216953  0.19443373  0.19443395] [ 0.56251903  0.56252168  0.63341318  0.63341508  0.74164314  0.74164557
  0.82533045  0.82533108  0.98939213  0.98939532  1.24617011  1.24617156
  1.31572803  1.31572981  1.38808606  1.38808665  1.41936317  1.41936476
  1.60841274  1.60841343  1.6930467   1.69304857  1.85866374  1.85866486
  1.95087333  1.9508748   2.0841824   2.08418307  2.09433442  2.09433525
  2.1592403   2.15924257  2.247709    2.24771003  2.53152907  2.53153011
  2.65562781  2.65562859  2.68864346  2.6886436   2.82223315  2.82223469
  2.83787474  2.8378754   2.93555745  2.93555762  3.12718752  3.12718824
  3.16864743  3.16864846  6.11551755  6.1155179   9.81258205  9.81258282
 10.49261063 10.49261104 10.61591065 10.61591138]
nelec by numeric integration = 36.00008991688009
    CPU time for vxc     19.03 sec, wall time      0.79 sec
    CPU time for get_j     17.22 sec, wall time      0.69 sec
    CPU time for vj and vk     17.22 sec, wall time      0.69 sec
Ewald components = 6.77773183084737, -128.779455527716, 5.42224205397643
E1 = (-86.58759926104679-2.945433626641675e-17j)  Ecoul = 60.41395191647983  Exc = -26.18556985439311
cycle= 1 E= -168.938698841852  delta_E= -0.16  |g|= 4.69  |ddm|= 11.4
    CPU time for cycle= 1     37.28 sec, wall time      1.52 sec
HOMO = 0.586918910761  LUMO = 0.598859934863
     k-point                  mo_energy
   0 ( 0.000  0.000  0.000)   [-0.31305241 -0.3114061  -0.31129649 -0.31129048 -0.31078499 -0.31078185
 -0.30910532 -0.30907577 -0.30675766 -0.30672485 -0.09305769  0.05190685
  0.16324314  0.50097922  0.500994    0.5795419   0.58691864  0.58691891] [ 0.61255074  0.63043441  0.72218566  0.72218688  0.76366699  0.84461934
  0.84463716  0.98490594  1.10167619  1.10172671  1.14143271  1.25447768
  1.25448684  1.32383667  1.36617328  1.41976733  1.41980921  1.45468992
  1.60143031  1.60145005  1.68733827  1.68735939  1.77312191  2.0145333
  2.01453648  2.03171649  2.03850839  2.03852349  2.07276737  2.07277603
  2.22276785  2.23908432  2.28044932  2.3566239   2.43400129  2.43400194
  2.59037444  2.59038479  2.62138182  2.72502757  2.86045998  2.86047133
  3.07337357  3.07337912  3.23716842  3.36703298  3.43294908  3.43298365
  3.44896287  3.44896473  5.80334372  5.82924476 10.1931469  10.22232541
 10.22233161 10.30573777 10.30575026 10.50012089]
   1 ( 0.000  0.000  0.500)   [-0.31211095 -0.31211055 -0.311315   -0.31131456 -0.31130878 -0.31130831
 -0.30766695 -0.30766671 -0.30763734 -0.30763721 -0.04744316 -0.04744214
  0.34725418  0.34725528  0.5373121   0.53731266  0.5373206   0.53732133] [ 0.64794744  0.64794833  0.77452452  0.7745262   0.77453344  0.77453456
  0.86558834  0.86558954  1.22005471  1.22005681  1.22010012  1.22010126
  1.24190932  1.24191428  1.42742066  1.42742215  1.42743269  1.42743529
  1.44468891  1.44469335  1.84331678  1.84331821  1.84333834  1.84334055
  1.8858052   1.88580594  2.16898543  2.1689864   2.16898935  2.16899021
  2.25943683  2.25943958  2.45532007  2.455322    2.48853022  2.48853118
  2.48853147  2.48853265  2.62921393  2.62921447  2.90422647  2.90422807
  2.90423439  2.90423549  3.16955213  3.16955306  3.44330295  3.44330351
  3.44332407  3.44332501  5.80901893  5.80901934 10.22457606 10.22457641
 10.22457728 10.22457861 10.23125768 10.23125782]
   2 ( 0.000  0.500  0.000)   [-0.31493208 -0.31300003 -0.31114765 -0.31070071 -0.30906003 -0.30885735
 -0.30728348 -0.30719694 -0.30681447 -0.3064895   0.03690108  0.0954037
  0.19857517  0.26115868  0.30089736  0.39584178  0.39780551  0.50725751] [ 0.5989048   0.69604883  0.77163621  0.7899378   0.87673258  0.9014323
  0.98691582  1.05764514  1.0653298   1.17114258  1.26872198  1.27167282
  1.35818359  1.41618073  1.43592509  1.47500618  1.49891794  1.52172341
  1.55239219  1.60899728  1.67987524  1.71612832  1.7508468   1.80218511
  1.99862172  2.00737941  2.0349772   2.05297187  2.17324349  2.20738706
  2.22957914  2.25471345  2.25590291  2.27178356  2.54617876  2.56104436
  2.64625524  2.75730283  2.77005966  2.88019624  2.97315993  2.9997108
  3.06292734  3.180001    3.21850111  3.27153787  3.31083414  3.34795997
  3.35885861  3.45279029  5.81927964  5.83152853  9.44790365 10.05045484
 10.13389202 10.29515141 10.57219392 10.62891496]
   3 ( 0.000  0.500  0.500)   [-0.3138281  -0.31382739 -0.31129099 -0.31129066 -0.30882809 -0.30882781
 -0.30694014 -0.30693995 -0.30684062 -0.30684007  0.07183652  0.07183743
  0.17951138  0.17951289  0.43994122  0.43994186  0.44739555  0.44739633] [ 0.61364799  0.61365234  0.71040351  0.71040579  0.92905629  0.92905757
  0.98012448  0.98012592  1.13983165  1.13983481  1.31665742  1.31665927
  1.39621563  1.39621714  1.43618757  1.43618919  1.45935569  1.45935648
  1.6205166   1.62051695  1.7486867   1.74868776  1.89269755  1.89269773
  1.93344601  1.93344769  2.10631451  2.10631551  2.11242982  2.11243034
  2.17136707  2.17136786  2.26749117  2.26749364  2.65810226  2.65810291
  2.71206475  2.71206658  2.76181863  2.76181889  3.04554523  3.04554563
  3.04613538  3.046137    3.12961257  3.12961275  3.34862416  3.34862469
  3.37696392  3.37696505  5.8222321   5.82223263  9.63152996  9.63153153
 10.29112263 10.29112286 10.41044583 10.41044694]
   4 ( 0.500  0.000  0.000)   [-0.31495445 -0.31300651 -0.31117076 -0.31067676 -0.30905692 -0.30888059
 -0.30727883 -0.30717764 -0.3068116  -0.30646737  0.03690148  0.0953913
  0.19858435  0.26116945  0.30092089  0.39585552  0.39778844  0.50726577] [ 0.59885993  0.69602891  0.77164109  0.78994859  0.87674131  0.90142955
  0.98693155  1.05765717  1.06533209  1.17113247  1.26869731  1.27170684
  1.35820981  1.4161652   1.43594137  1.47500204  1.4989318   1.52174129
  1.55240428  1.60900278  1.67982954  1.71612626  1.75091436  1.80220264
  1.99862173  2.00736093  2.0349926   2.05293834  2.17324767  2.207379
  2.22958164  2.25472376  2.25592303  2.27178289  2.54618892  2.56105573
  2.64625765  2.757331    2.77003941  2.88018959  2.97318341  2.99969139
  3.06292662  3.18000981  3.21849421  3.27154716  3.31084535  3.34792401
  3.3588499   3.4528181   5.81928074  5.83152869  9.44789153 10.05043255
 10.13388935 10.29517893 10.57220061 10.62890305]
   5 ( 0.500  0.000  0.500)   [-0.31384526 -0.31384523 -0.31130399 -0.31130368 -0.30880572 -0.30880542
 -0.30693762 -0.30693717 -0.30683469 -0.30683418  0.07183145  0.07183166
  0.17952136  0.17952293  0.43995349  0.43995356  0.44740076  0.44740151] [ 0.61363266  0.61363594  0.71038494  0.71038732  0.92906224  0.92906301
  0.98012282  0.98012486  1.13984105  1.13984305  1.31668735  1.31668882
  1.39622561  1.39622761  1.43618661  1.43618961  1.45935113  1.45935215
  1.62051667  1.6205171   1.74871333  1.74871447  1.89269666  1.89269792
  1.93346984  1.93347103  2.10629421  2.10629493  2.11242272  2.11242462
  2.1713561   2.1713572   2.26752275  2.26752281  2.6580968   2.65809729
  2.71208544  2.7120856   2.76179989  2.76180074  3.04554458  3.04554471
  3.04615364  3.04615471  3.12960676  3.12960727  3.34864172  3.34864207
  3.37694896  3.37694968  5.82223292  5.82223332  9.63150245  9.63150325
 10.29114593 10.29114618 10.41044002 10.41044064]
   6 ( 0.500  0.500  0.000)   [-0.31495437 -0.31300637 -0.3111707  -0.31067692 -0.30905693 -0.30888047
 -0.30727892 -0.30717761 -0.30681165 -0.30646747  0.03690183  0.09539107
  0.19858437  0.2611695   0.30092077  0.3958546   0.39778726  0.50726548] [ 0.59886195  0.69602901  0.77164078  0.78994751  0.8767411   0.90142949
  0.98693048  1.0576566   1.06533178  1.17113376  1.26870023  1.27170605
  1.35820882  1.4161636   1.43594248  1.47500293  1.49893145  1.52174042
  1.55240406  1.60900336  1.67983004  1.7161257   1.75091322  1.80220256
  1.99862235  2.0073608   2.03499261  2.05293852  2.17324811  2.2073792
  2.22958099  2.25472347  2.25592224  2.27178144  2.54618799  2.56105751
  2.64625788  2.75732939  2.77004054  2.88018945  2.97318255  2.99969255
  3.06292658  3.18000908  3.21849484  3.27154612  3.31084569  3.34792395
  3.35885068  3.45281675  5.81928079  5.83152877  9.44789098 10.05043237
 10.13388862 10.29517909 10.57220086 10.62890255]
   7 ( 0.500  0.500  0.500)   [-0.31384524 -0.31384506 -0.31130386 -0.31130366 -0.30880576 -0.30880569
 -0.30693754 -0.30693718 -0.3068347  -0.30683425  0.07183165  0.07183209
  0.17952084  0.17952243  0.43995238  0.43995323  0.44740108  0.44740144] [ 0.61363258  0.61363625  0.71038526  0.71038741  0.92906174  0.92906234
  0.98012345  0.98012526  1.13984049  1.13984313  1.31668663  1.3166875
  1.3962264   1.39622784  1.43618912  1.43618957  1.4593498   1.45935168
  1.62051695  1.62051746  1.7487129   1.7487141   1.8926963   1.89269749
  1.93346926  1.93347057  2.10629417  2.10629489  2.11242385  2.11242511
  2.1713562   2.17135699  2.26752072  2.26752262  2.65809671  2.65809753
  2.71208406  2.71208431  2.76180109  2.7618017   3.04554492  3.04554509
  3.04615307  3.04615406  3.12960746  3.12960752  3.34864011  3.348641
  3.37694939  3.37695053  5.82223292  5.82223342  9.63150241  9.63150297
 10.29114604 10.29114639 10.41043945 10.41043998]
nelec by numeric integration = 36.00027364402944
    CPU time for vxc     19.44 sec, wall time      0.78 sec
    CPU time for get_j     19.66 sec, wall time      0.81 sec
    CPU time for vj and vk     19.67 sec, wall time      0.81 sec
Ewald components = 6.77773183084737, -128.779455527716, 5.42224205397643
E1 = (-88.25575736677905-2.2719489793857015e-17j)  Ecoul = 62.2130684800385  Exc = -25.248767176118914
cycle= 2 E= -167.870937705751  delta_E= 1.07  |g|= 7.06  |ddm|= 14.1
    CPU time for cycle= 2     39.99 sec, wall time      1.62 sec
HOMO = 0.36494310014  LUMO = 0.484264187842
     k-point                  mo_energy
   0 ( 0.000  0.000  0.000)   [-0.21672922 -0.19028166 -0.14281367 -0.14170843 -0.14169783 -0.13942774
 -0.13942361 -0.13307255 -0.13304889 -0.12977588 -0.12974531 -0.07679467
  0.10689699  0.32617591  0.32618403  0.3632779   0.36494159  0.3649431 ] [ 0.48426419  0.54937368  0.74438986  0.74581028  0.74581204  0.77657908
  0.81869502  0.81871466  1.10721039  1.10725925  1.16885683  1.27386098
  1.27387324  1.323682    1.32373713  1.33466969  1.33933917  1.46109156
  1.48629893  1.48631842  1.57009841  1.6485788   1.64859833  1.93863514
  1.93864172  1.99357505  1.99358312  1.99716069  2.04589072  2.04589666
  2.1741564   2.27176525  2.30128353  2.31452278  2.38315007  2.38315528
  2.49006669  2.49007451  2.57561701  2.64500633  2.66742752  2.66744117
  2.96247829  2.96247947  3.08273237  3.2388274   3.29664262  3.29668662
  3.33893267  3.33893692  5.9834894   6.0064173  10.30132959 10.33236565
 10.33237349 10.41338966 10.41340251 10.61679723]
   1 ( 0.000  0.000  0.500)   [-0.19865727 -0.19865693 -0.14091542 -0.14091521 -0.14090744 -0.14090727
 -0.13110885 -0.13110834 -0.13108228 -0.13108194 -0.12735666 -0.12735643
  0.22613764  0.22613869  0.3450504   0.34505051  0.34505529  0.34505549] [ 0.55739855  0.55739963  0.71146927  0.71147158  0.77362162  0.77362345
  0.77363061  0.77363134  1.18498336  1.18498622  1.185034    1.18503568
  1.2611361   1.26114253  1.3946869   1.39469177  1.41292183  1.41292303
  1.41293888  1.41294119  1.7209211   1.72092238  1.72094588  1.72094789
  1.81939775  1.8193986   2.14832073  2.14832176  2.14832419  2.14832494
  2.29280282  2.29280558  2.37741703  2.37741919  2.42709724  2.42709786
  2.42709814  2.42709905  2.59131232  2.59131253  2.73934479  2.73934594
  2.73935233  2.73935303  3.01354689  3.01354756  3.31887784  3.3188784
  3.31890153  3.31890224  5.98828781  5.98828785 10.33319894 10.33319944
 10.33320083 10.33320145 10.34004055 10.34004094]
   2 ( 0.000  0.500  0.000)   [-0.19050627 -0.18617625 -0.14006773 -0.13944229 -0.13614718 -0.13427333
 -0.13290575 -0.13283289 -0.12968829 -0.12868873 -0.08025526 -0.05783477
  0.12789376  0.17095385  0.21036956  0.26330937  0.28477417  0.32797797] [ 0.5904259   0.60511192  0.65118004  0.71157604  0.78457405  0.78586105
  0.87934307  0.8944674   0.90965711  1.11909037  1.19858442  1.24504229
  1.31949464  1.38728755  1.40202852  1.42281839  1.46992882  1.47149466
  1.55919501  1.58006786  1.60862389  1.69946685  1.73076517  1.81244971
  1.95280115  1.96010583  2.01025316  2.02476321  2.1580405   2.16484092
  2.18808841  2.2363343   2.27873893  2.28758604  2.46818812  2.56523235
  2.57946811  2.62941481  2.7093915   2.75799646  2.84414277  2.848802
  2.95619987  3.02549758  3.07813246  3.0969144   3.15413132  3.20968821
  3.2499952   3.30327666  5.99724925  6.00869568  9.54998343 10.15825317
 10.24228115 10.40479266 10.69030218 10.74815446]
   3 ( 0.000  0.500  0.500)   [-0.18659814 -0.18659788 -0.14011384 -0.14011352 -0.13597942 -0.13597876
 -0.13218608 -0.13218569 -0.12947714 -0.129477   -0.07047117 -0.0704708
  0.12248053  0.12248167  0.29297793  0.29297845  0.29498076  0.29498129] [ 0.5716588   0.57166368  0.68161483  0.68161633  0.7767913   0.77679339
  0.84975436  0.84975476  1.02452738  1.02453065  1.26421066  1.26421315
  1.33307472  1.3330769   1.3981056   1.39810714  1.43351683  1.43351743
  1.6083663   1.60836681  1.70173927  1.70174051  1.86729691  1.86729714
  1.94142067  1.94142238  2.08684772  2.08684809  2.08905632  2.08905734
  2.16558415  2.16558486  2.24018969  2.24019303  2.59216138  2.59216207
  2.65968011  2.65968055  2.69706504  2.69706689  2.88428823  2.88429044
  2.89874532  2.89874603  2.98959729  2.98959769  3.19138852  3.19138988
  3.22810721  3.22810829  6.00002226  6.00002236  9.73180514  9.73180718
 10.40202971 10.40202993 10.52464509 10.52464583]
   4 ( 0.500  0.000  0.000)   [-0.1905056  -0.18619051 -0.14009257 -0.13942125 -0.13615281 -0.13428907
 -0.13289302 -0.13282293 -0.12968388 -0.12867283 -0.080251   -0.05785062
  0.12790433  0.17096728  0.21038276  0.26331801  0.28476026  0.3279838 ] [ 0.59037715  0.60509264  0.65117301  0.71156981  0.78458152  0.78589502
  0.87935104  0.8944952   0.90966887  1.11907361  1.19862518  1.24501478
  1.31952117  1.38727536  1.40204082  1.42281782  1.46994587  1.4715184
  1.55913339  1.58007221  1.60863211  1.69947009  1.73082976  1.81246014
  1.95281802  1.96007436  2.01025741  2.02473171  2.15803071  2.16484041
  2.18808093  2.23636091  2.27875046  2.28760662  2.46819109  2.56523905
  2.57948097  2.62940828  2.70938621  2.75802071  2.84417171  2.84877809
  2.95619924  3.02551023  3.07812264  3.09692692  3.15414381  3.20963652
  3.24999122  3.30330929  5.99725042  6.00869602  9.54997028 10.15823049
 10.24227863 10.40482124 10.69030521 10.74814333]
   5 ( 0.500  0.000  0.500)   [-0.18660533 -0.18660527 -0.14012725 -0.14012686 -0.1359606  -0.13596052
 -0.13218761 -0.13218718 -0.12946997 -0.12946985 -0.07047797 -0.07047777
  0.1224912   0.12249241  0.29298554  0.29298575  0.29498175  0.29498227] [ 0.5716425   0.57164531  0.68159351  0.68159426  0.7768102   0.77681232
  0.84976301  0.84976346  1.02451945  1.02452323  1.26424573  1.26424723
  1.33309206  1.33309378  1.39809929  1.39810218  1.43351576  1.43351677
  1.6083645   1.60836515  1.70176416  1.70176541  1.8672923   1.86729357
  1.94144198  1.94144319  2.08684919  2.08685014  2.08903215  2.08903301
  2.16556268  2.16556354  2.24023411  2.24023522  2.59214074  2.59214156
  2.65968116  2.65968217  2.69707887  2.69707917  2.88431394  2.88431539
  2.89874504  2.89874603  2.98959164  2.98959271  3.19141052  3.19141152
  3.22808769  3.22808846  6.00002313  6.00002318  9.73177678  9.73177789
 10.40205131 10.40205191 10.52463987 10.52464023]
   6 ( 0.500  0.500  0.000)   [-0.19050544 -0.18619045 -0.14009254 -0.13942146 -0.13615277 -0.13428896
 -0.13289295 -0.13282308 -0.12968391 -0.1286729  -0.08025082 -0.05785062
  0.12790408  0.17096734  0.21038288  0.26331745  0.28475972  0.32798365] [ 0.59037847  0.60509291  0.65117228  0.71156983  0.78458055  0.78589453
  0.87935096  0.89449358  0.90966786  1.11907538  1.19862371  1.24501812
  1.31951995  1.38727355  1.40204208  1.42281903  1.4699453   1.47151747
  1.5591342   1.5800723   1.60863241  1.69946971  1.73082855  1.81245993
  1.95281835  1.96007421  2.0102576   2.02473193  2.1580317   2.16483988
  2.18808121  2.23635991  2.27875007  2.28760479  2.46819054  2.56523901
  2.57948287  2.62940955  2.70938588  2.75801947  2.84417057  2.84877941
  2.9561992   3.02550912  3.07812354  3.09692555  3.15414427  3.20963653
  3.24999212  3.30330755  5.99725047  6.0086961   9.54996967 10.15823031
 10.24227779 10.40482141 10.6903055  10.74814275]
   7 ( 0.500  0.500  0.500)   [-0.18660522 -0.18660516 -0.14012713 -0.14012686 -0.13596095 -0.13596057
 -0.13218747 -0.13218718 -0.12947002 -0.12946986 -0.07047791 -0.07047762
  0.12249106  0.12249199  0.29298508  0.29298544  0.29498199  0.29498236] [ 0.57164206  0.57164543  0.68159333  0.68159442  0.77681057  0.77681247
  0.84976205  0.84976259  1.02452022  1.02452362  1.26424423  1.26424546
  1.33309207  1.33309402  1.39810203  1.39810279  1.43351454  1.43351628
  1.60836495  1.60836544  1.70176363  1.70176531  1.86729226  1.8672933
  1.94144152  1.94144286  2.08684998  2.08685078  2.08903212  2.08903291
  2.16556205  2.16556377  2.24023283  2.24023421  2.59214098  2.59214213
  2.65968192  2.65968257  2.69707802  2.69707812  2.88431312  2.88431431
  2.8987457   2.89874621  2.98959276  2.98959295  3.19140897  3.19140957
  3.2280884   3.22808943  6.00002316  6.00002324  9.73177671  9.73177763
 10.40205155 10.40205202 10.52463886 10.52463984]
nelec by numeric integration = 36.00014896878505
    CPU time for vxc     19.29 sec, wall time      0.77 sec
    CPU time for get_j     23.02 sec, wall time      0.96 sec
    CPU time for vj and vk     23.03 sec, wall time      0.97 sec
Ewald components = 6.77773183084737, -128.779455527716, 5.42224205397643
E1 = (-87.65493125335885-2.6393486229514503e-17j)  Ecoul = 60.46138157681234  Exc = -25.770028700442104
cycle= 3 E= -169.54306001988  delta_E= -1.67  |g|= 0.278  |ddm|= 8.88
    CPU time for cycle= 3     43.18 sec, wall time      1.77 sec
HOMO = 0.373758013698  LUMO = 0.484580372196
     k-point                  mo_energy
   0 ( 0.000  0.000  0.000)   [-0.21137761 -0.18769984 -0.14552666 -0.1447311  -0.14472112 -0.14261667
 -0.14261276 -0.13641995 -0.13639554 -0.13301786 -0.13298695 -0.0740609
  0.10685782  0.33361026  0.33361837  0.37074343  0.37375689  0.37375801] [ 0.48458037  0.54897864  0.74193005  0.74193256  0.74653996  0.77381393
  0.81638316  0.81640246  1.10497438  1.10502432  1.16435841  1.26978872
  1.26980197  1.3230988   1.32315301  1.33127723  1.33580131  1.45901958
  1.48650933  1.48653046  1.5704068   1.64953247  1.64955237  1.93719922
  1.93720417  1.99282835  1.9928367   1.99520737  2.04341218  2.04341879
  2.1738267   2.2672553   2.30338812  2.30994972  2.38512176  2.38512721
  2.49557708  2.49558467  2.57510811  2.64496447  2.67597503  2.67598853
  2.9653856   2.96538669  3.08762757  3.24241086  3.30183451  3.30187659
  3.34286273  3.34286819  5.98106722  6.00410306 10.29563035 10.32603608
 10.32604255 10.40717933 10.40719298 10.61090823]
   1 ( 0.000  0.000  0.500)   [-0.19411939 -0.19411877 -0.14402346 -0.14402254 -0.14401602 -0.1440149
 -0.1344003  -0.13439976 -0.13437331 -0.13437268 -0.12856192 -0.12856117
  0.2291978   0.22919873  0.353108    0.35310865  0.35311274  0.35311347] [ 0.55880878  0.55880978  0.71084713  0.7108492   0.77043451  0.77043669
  0.77044332  0.77044389  1.18304695  1.18304968  1.1830976   1.1830996
  1.25686163  1.25686775  1.39209353  1.39209861  1.41127739  1.41127841
  1.4112955   1.41129753  1.72105087  1.72105261  1.72107478  1.72107723
  1.819556    1.81955701  2.14702211  2.14702296  2.14702634  2.14702689
  2.28826147  2.28826494  2.37729652  2.37729883  2.42991709  2.42991751
  2.42991781  2.42991898  2.59043876  2.59043945  2.74556475  2.74556657
  2.74557216  2.74557349  3.01862316  3.01862425  3.32356783  3.3235684
  3.32358985  3.32359076  5.98588528  5.9858864  10.32691597 10.32691636
 10.32691707 10.32691919 10.3343084  10.33430887]
   2 ( 0.000  0.500  0.000)   [-0.18776366 -0.18428431 -0.14310686 -0.14239738 -0.13921624 -0.13758304
 -0.13599983 -0.13592149 -0.13317282 -0.13206136 -0.07875424 -0.05440672
  0.13023525  0.17432296  0.21279271  0.2688502   0.28885719  0.33566778] [ 0.58798302  0.60555704  0.64990183  0.71418442  0.78061806  0.7872221
  0.87833173  0.89382476  0.90968141  1.11705345  1.19841863  1.24090862
  1.31896098  1.38843925  1.40257661  1.42239624  1.47018802  1.4735513
  1.55923859  1.57719035  1.60556154  1.69609372  1.72696258  1.80882444
  1.95249885  1.95778375  2.00890653  2.02374381  2.15582691  2.16525486
  2.18576948  2.23496657  2.27509758  2.28549131  2.4717718   2.56976765
  2.57617413  2.63291725  2.71668018  2.75534208  2.84725946  2.85406734
  2.95867656  3.031241    3.08212775  3.10405493  3.15996174  3.21375155
  3.25207734  3.30949905  5.99491608  6.00641949  9.54364124 10.15202814
 10.23588522 10.3990675  10.68429955 10.74164073]
   3 ( 0.000  0.500  0.500)   [-0.18432421 -0.18432385 -0.14321697 -0.14321612 -0.13899551 -0.13899512
 -0.13524967 -0.13524962 -0.13294707 -0.1329459  -0.06789688 -0.06789648
  0.1241539   0.12415495  0.29933678  0.29933714  0.30059817  0.30059852] [ 0.56917225  0.5691773   0.68110366  0.68110577  0.77774877  0.77775104
  0.84801592  0.8480164   1.02362181  1.0236252   1.26371475  1.2637169
  1.33065455  1.33065694  1.39827179  1.39827354  1.43431418  1.43431496
  1.60711732  1.60711809  1.69998842  1.69999015  1.86576367  1.86576402
  1.93869395  1.93869579  2.08512068  2.08512142  2.08657206  2.08657295
  2.16403538  2.164036    2.23876482  2.23876789  2.59675582  2.59675684
  2.65962921  2.65962934  2.6958221   2.69582405  2.88970269  2.88970503
  2.90355416  2.90355448  2.99367189  2.99367227  3.19791188  3.19791273
  3.23305278  3.23305428  5.99770702  5.99770826  9.72581588  9.72581716
 10.39604003 10.39604066 10.51819489 10.51819659]
   4 ( 0.500  0.000  0.000)   [-0.18776273 -0.18429928 -0.14313175 -0.14237624 -0.13922176 -0.13759757
 -0.13599075 -0.13591019 -0.13316841 -0.13204447 -0.07875007 -0.05442246
  0.13024681  0.17433607  0.21280696  0.26885875  0.28884263  0.33567352] [ 0.58793371  0.60553841  0.64989537  0.71417717  0.78062515  0.78725622
  0.87833833  0.8938545   0.90969241  1.11703632  1.19845946  1.24088117
  1.31898788  1.38842594  1.40259038  1.42239601  1.47020486  1.47357486
  1.5591768   1.57719583  1.60557073  1.69609682  1.72702761  1.80883541
  1.95251505  1.95775167  2.00891014  2.02371193  2.155818    2.16525432
  2.18576183  2.23499314  2.27510969  2.28551211  2.47177471  2.56977478
  2.576186    2.63290941  2.7166748   2.75536641  2.84728788  2.85404374
  2.95867547  3.03125336  3.08211809  3.10406683  3.1599746   3.21370084
  3.25207458  3.30953106  5.99491727  6.00641986  9.54362838 10.15200497
 10.23588141 10.39909715 10.68430342 10.74162885]
   5 ( 0.500  0.000  0.500)   [-0.18433175 -0.18433169 -0.14323019 -0.14323001 -0.13897741 -0.13897639
 -0.13525131 -0.13525064 -0.13293959 -0.1329386  -0.06790351 -0.06790322
  0.12416457  0.12416592  0.29934416  0.29934446  0.30059995  0.30060009] [ 0.56915601  0.5691589   0.68108144  0.6810827   0.77776776  0.77777028
  0.84802378  0.84802463  1.02361442  1.02361827  1.26374978  1.26375111
  1.33067292  1.33067423  1.39826604  1.39826929  1.43431249  1.43431354
  1.60711538  1.60711634  1.70001382  1.70001565  1.86575891  1.86576057
  1.93871565  1.93871699  2.08512179  2.08512312  2.08654739  2.08654824
  2.16401381  2.16401478  2.23880932  2.23881077  2.5967355   2.59673623
  2.65962876  2.6596299   2.69583619  2.69583683  2.88972768  2.8897292
  2.90355441  2.90355499  2.99366636  2.99366711  3.1979332   3.19793378
  3.23303458  3.23303552  5.99770795  5.99770905  9.72578705  9.72578788
 10.3960632  10.39606357 10.51818873 10.51818994]
   6 ( 0.500  0.500  0.000)   [-0.18776257 -0.18429921 -0.14313171 -0.14237645 -0.13922173 -0.13759747
 -0.1359909  -0.13591013 -0.13316843 -0.13204455 -0.07874991 -0.05442246
  0.13024658  0.17433616  0.21280705  0.26885816  0.28884206  0.33567335] [ 0.58793506  0.60553864  0.64989469  0.71417725  0.78062417  0.78725567
  0.87833837  0.89385273  0.90969141  1.11703813  1.19845798  1.24088456
  1.31898664  1.38842412  1.40259166  1.42239723  1.47020429  1.47357392
  1.5591776   1.57719592  1.60557102  1.69609642  1.7270264   1.80883517
  1.95251541  1.9577515   2.00891036  2.02371215  2.15581896  2.16525378
  2.18576209  2.23499212  2.27510932  2.28551025  2.47177414  2.56977471
  2.57618794  2.63291075  2.71667447  2.75536514  2.84728674  2.85404506
  2.95867543  3.03125227  3.08211898  3.10406545  3.15997507  3.21370085
  3.25207547  3.30952932  5.99491732  6.00641995  9.54362775 10.15200479
 10.23588059 10.39909732 10.6843037  10.74162828]
   7 ( 0.500  0.500  0.500)   [-0.18433166 -0.18433153 -0.14323018 -0.14322989 -0.13897742 -0.13897678
 -0.13525119 -0.13525064 -0.1329396  -0.13293865 -0.06790346 -0.06790307
  0.12416451  0.12416544  0.29934348  0.2993443   0.30060005  0.30060031] [ 0.56915552  0.56915899  0.68108128  0.68108296  0.77776814  0.77777041
  0.84802303  0.84802359  1.02361519  1.02361862  1.26374811  1.26374951
  1.33067292  1.33067449  1.3982691   1.39826962  1.43431125  1.43431304
  1.60711579  1.60711664  1.70001329  1.7000155   1.86575886  1.8657603
  1.93871518  1.93871669  2.08512256  2.0851238   2.08654747  2.08654798
  2.16401311  2.16401506  2.23880835  2.23880941  2.5967355   2.59673698
  2.65962948  2.65963047  2.6958354   2.69583568  2.88972682  2.88972815
  2.90355502  2.90355522  2.99366737  2.99366745  3.19793121  3.19793225
  3.23303519  3.23303658  5.99770794  5.99770914  9.72578704  9.72578755
 10.39606321 10.3960639  10.51818857 10.51818873]
nelec by numeric integration = 36.00015464205407
    CPU time for vxc     22.23 sec, wall time      0.92 sec
    CPU time for get_j     16.43 sec, wall time      0.69 sec
    CPU time for vj and vk     16.44 sec, wall time      0.69 sec
Ewald components = 6.77773183084737, -128.779455527716, 5.42224205397643
E1 = (-87.58242784475928-2.6223195308387815e-17j)  Ecoul = 60.33381141106305  Exc = -25.71740629554839
cycle= 4 E= -169.545504372137  delta_E= -0.00244  |g|= 0.0445  |ddm|= 0.416
    CPU time for cycle= 4     40.72 sec, wall time      1.70 sec
HOMO = 0.372502350121  LUMO = 0.483756934903
     k-point                  mo_energy
   0 ( 0.000  0.000  0.000)   [-0.21211444 -0.1900507  -0.14926714 -0.14848201 -0.14847198 -0.14639055
 -0.14638662 -0.1402706  -0.14024629 -0.1369107  -0.13687986 -0.07656041
  0.10655924  0.33252995  0.33253798  0.36967976  0.37250124  0.37250235] [ 0.48375693  0.54797235  0.74149132  0.74149398  0.7456281   0.77328802
  0.81573779  0.81575714  1.10430425  1.1043539   1.16376122  1.26929471
  1.26930793  1.32234062  1.32239462  1.33087225  1.33525104  1.45855588
  1.48554198  1.48556321  1.56979206  1.64897065  1.64899035  1.93661332
  1.93661848  1.99197323  1.99198126  1.99433444  2.04288462  2.04289114
  2.17331868  2.26670106  2.30273659  2.30937923  2.38436221  2.38436759
  2.49466269  2.49467037  2.57435254  2.64423142  2.67514316  2.67515657
  2.96466174  2.96466287  3.08678949  3.24170805  3.30082594  3.30086791
  3.34187373  3.34187944  5.97683279  5.9998607  10.29390102 10.32431204
 10.32431845 10.40542402 10.40543779 10.60901752]
   1 ( 0.000  0.000  0.500)   [-0.19560655 -0.19560616 -0.14778039 -0.14778018 -0.14777278 -0.14777265
 -0.13827667 -0.1382761  -0.13824964 -0.13824923 -0.13159152 -0.13159129
  0.22844562  0.22844678  0.35194502  0.35194542  0.35194975  0.35195012] [ 0.55776489  0.55776585  0.71020558  0.71020803  0.76990822  0.76991012
  0.76991677  0.76991751  1.18237613  1.182379    1.18242674  1.18242844
  1.25630432  1.25631082  1.39160958  1.39161455  1.41057605  1.41057728
  1.41059415  1.41059647  1.72031969  1.72032081  1.72034355  1.72034539
  1.81883464  1.81883545  2.14638398  2.14638496  2.14638799  2.14638864
  2.28769955  2.28770239  2.37660644  2.37660874  2.4291213   2.42912161
  2.42912196  2.42912296  2.58977182  2.58977204  2.74477002  2.74477096
  2.74477739  2.74477786  3.01784181  3.01784249  3.32255827  3.32255891
  3.32258033  3.32258088  5.98164847  5.98164858 10.32519197 10.32519275
 10.32519335 10.32519487 10.3325303  10.33253074]
   2 ( 0.000  0.500  0.000)   [-0.19008301 -0.18695042 -0.14684728 -0.14618093 -0.14302048 -0.14138992
 -0.13986202 -0.13978519 -0.13705303 -0.13595788 -0.08115802 -0.05646124
  0.12941075  0.17340693  0.21228385  0.26801161  0.28815061  0.33455266] [ 0.5872015   0.60469328  0.64918909  0.71324487  0.7802226   0.78627185
  0.87754485  0.89324469  0.90878289  1.11644325  1.19747272  1.24040855
  1.31830248  1.38777986  1.40176428  1.42178143  1.46983496  1.47291487
  1.55843738  1.5762032   1.60507229  1.69528947  1.72629995  1.80791461
  1.95181043  1.95718918  2.00826383  2.02321553  2.15519557  2.16458308
  2.18511583  2.23419261  2.27459884  2.28466366  2.47100144  2.56904505
  2.57546386  2.63220788  2.7158044   2.75472514  2.84653652  2.8532813
  2.95791333  3.03038958  3.08130477  3.10311018  3.15911766  3.2130017
  3.25139396  3.30848655  5.99065795  6.0021821   9.54201657 10.15026323
 10.23420143 10.3973092  10.68236102 10.73970644]
   3 ( 0.000  0.500  0.500)   [-0.18685828 -0.18685787 -0.14695162 -0.14695133 -0.14282052 -0.14281982
 -0.13910603 -0.13910562 -0.13682928 -0.13682917 -0.07009684 -0.07009658
  0.12342525  0.12342651  0.29837684  0.29837759  0.29974914  0.29974984] [ 0.56855016  0.5685551   0.680284    0.68028557  0.77689537  0.77689754
  0.84736923  0.84736952  1.0229148   1.02291811  1.26292807  1.26293065
  1.33009188  1.33009417  1.3975867   1.39758818  1.43362956  1.43363005
  1.60625154  1.60625207  1.699226    1.69922729  1.86521878  1.86521897
  1.9380926   1.9380943   2.08448769  2.08448811  2.08595309  2.08595405
  2.16330678  2.1633075   2.23799872  2.23800209  2.59604779  2.59604837
  2.6588323   2.6588328   2.69514394  2.69514586  2.88896447  2.88896665
  2.90279237  2.90279321  2.99285006  2.99285054  3.19690949  3.19691108
  3.23228275  3.23228373  5.99345908  5.99345912  9.72416594  9.72416801
 10.39422521 10.39422547 10.51637736 10.5163781 ]
   4 ( 0.500  0.000  0.000)   [-0.19008203 -0.18696563 -0.14687221 -0.1461598  -0.14302583 -0.14140485
 -0.13985288 -0.13977337 -0.13704864 -0.1359411  -0.08115419 -0.05647668
  0.12942223  0.17342043  0.21229794  0.26802009  0.28813619  0.33455836] [ 0.58715207  0.60467417  0.64918258  0.71323794  0.78022954  0.78630602
  0.87755165  0.89327432  0.90879384  1.1164263   1.19751346  1.24038113
  1.31832964  1.38776633  1.40177844  1.4217814   1.46985184  1.47293839
  1.55837546  1.5762085   1.60508129  1.6952926   1.726365    1.80792555
  1.95182676  1.957157    2.00826786  2.02318358  2.15518651  2.16458259
  2.18510815  2.23421918  2.27461086  2.28468443  2.47100436  2.56905228
  2.57547588  2.63220026  2.71579901  2.75474948  2.84656494  2.85325758
  2.95791227  3.03040185  3.08129498  3.10312195  3.15913065  3.21295087
  3.25139124  3.30851838  5.99065914  6.00218248  9.54200376 10.15024019
 10.23419755 10.39733887 10.68236477 10.73969454]
   5 ( 0.500  0.000  0.500)   [-0.18686594 -0.18686589 -0.14696519 -0.14696477 -0.14280181 -0.14280171
 -0.13910726 -0.13910684 -0.13682195 -0.13682178 -0.07010351 -0.07010336
  0.12343629  0.12343748  0.29838425  0.29838478  0.29975068  0.29975141] [ 0.56853382  0.56853668  0.68026184  0.68026268  0.77691454  0.77691653
  0.84737712  0.84737756  1.02290735  1.02291119  1.26296307  1.26296462
  1.33011022  1.33011199  1.39758115  1.39758404  1.43362765  1.43362874
  1.60624972  1.60625035  1.6992514   1.69925276  1.86521416  1.86521544
  1.93811428  1.93811547  2.08448889  2.08448991  2.08592841  2.08592919
  2.16328517  2.16328605  2.23804377  2.23804478  2.59602716  2.59602803
  2.65883212  2.65883316  2.69515818  2.69515848  2.88898936  2.88899086
  2.9027926   2.90279369  2.99284436  2.99284551  3.19693066  3.1969319
  3.23226442  3.2322652   5.9934599   5.99346002  9.72413744  9.72413858
 10.39424801 10.39424863 10.51637111 10.51637144]
   6 ( 0.500  0.500  0.000)   [-0.19008187 -0.18696556 -0.14687218 -0.14616001 -0.14302579 -0.14140475
 -0.13985303 -0.13977331 -0.13704867 -0.13594117 -0.08115403 -0.05647669
  0.12942199  0.17342051  0.21229803  0.26801951  0.28813562  0.3345582 ] [ 0.58715343  0.60467441  0.6491819   0.713238    0.78022856  0.78630547
  0.87755168  0.89327256  0.90879285  1.11642811  1.19751198  1.24038453
  1.31832839  1.3877645   1.40177971  1.42178262  1.46985126  1.47293744
  1.55837627  1.57620859  1.60508159  1.6952922   1.72636379  1.80792531
  1.95182712  1.95715683  2.00826807  2.02318381  2.15518748  2.16458205
  2.18510841  2.23421816  2.27461049  2.28468257  2.47100379  2.56905221
  2.57547781  2.6322016   2.71579869  2.75474821  2.84656379  2.85325891
  2.95791223  3.03040076  3.08129588  3.10312058  3.15913112  3.21295088
  3.25139214  3.30851664  5.99065919  6.00218256  9.54200313 10.15024001
 10.23419672 10.39733904 10.68236505 10.73969396]
   7 ( 0.500  0.500  0.500)   [-0.18686589 -0.1868657  -0.14696508 -0.14696476 -0.14280218 -0.14280173
 -0.13910713 -0.13910685 -0.136822   -0.13682179 -0.07010342 -0.07010325
  0.12343614  0.12343709  0.29838403  0.29838418  0.29975094  0.29975148] [ 0.56853334  0.56853677  0.68026173  0.68026287  0.77691493  0.77691665
  0.84737623  0.84737665  1.02290809  1.02291158  1.26296163  1.26296278
  1.33011023  1.33011225  1.39758385  1.39758472  1.4336265   1.43362815
  1.60625016  1.60625063  1.69925086  1.69925263  1.86521412  1.86521516
  1.93811382  1.93811516  2.08448969  2.08449056  2.08592836  2.08592907
  2.1632846   2.16328623  2.23804237  2.23804383  2.59602743  2.59602851
  2.65883297  2.6588336   2.69515726  2.69515744  2.88898859  2.88898973
  2.90279327  2.90279387  2.99284546  2.99284577  3.19692932  3.19692974
  3.23226516  3.23226614  5.99345999  5.99346003  9.72413737  9.72413832
 10.39424825 10.39424874 10.51637008 10.51637108]
nelec by numeric integration = 36.000154391643385
    CPU time for vxc     18.73 sec, wall time      0.82 sec
    CPU time for get_j     16.41 sec, wall time      0.70 sec
    CPU time for vj and vk     16.41 sec, wall time      0.70 sec
Ewald components = 6.77773183084737, -128.779455527716, 5.42224205397643
E1 = (-87.6460537472955-2.623683039038725e-17j)  Ecoul = 60.412048126161245  Exc = -25.732062790300603
cycle= 5 E= -169.545550054327  delta_E= -4.57e-05  |g|= 0.007  |ddm|= 0.075
    CPU time for cycle= 5     36.48 sec, wall time      1.57 sec
HOMO = 0.372661784213  LUMO = 0.483821764364
     k-point                  mo_energy
   0 ( 0.000  0.000  0.000)   [-0.21203543 -0.18974668 -0.14880274 -0.14799824 -0.14798816 -0.14589882
 -0.14589487 -0.13978652 -0.13976227 -0.13642589 -0.13639508 -0.07629639
  0.10664715  0.33266281  0.33267086  0.36986898  0.37266065  0.37266178] [ 0.48382176  0.54796604  0.74148865  0.74149136  0.74576531  0.77326318
  0.81575421  0.81577353  1.10435472  1.1044043   1.16369691  1.26932019
  1.26933346  1.32243052  1.32248447  1.33096399  1.33529628  1.45853458
  1.48563964  1.4856609   1.5699468   1.64898726  1.64900695  1.93665393
  1.93665913  1.99204646  1.99205444  1.99435502  2.04289674  2.04290324
  2.17339354  2.26673524  2.30283268  2.30941612  2.38439643  2.38440179
  2.49471873  2.49472641  2.5744556   2.64428811  2.67522345  2.67523685
  2.9647257   2.96472685  3.08688472  3.24185266  3.30092119  3.30096312
  3.34197535  3.34198114  5.97735544  6.00038747 10.2941024  10.32454814
 10.32455454 10.40567252 10.40568632 10.60927062]
   1 ( 0.000  0.000  0.500)   [-0.19541825 -0.19541726 -0.14729414 -0.14729346 -0.14728663 -0.14728576
 -0.1377909  -0.13779056 -0.13776404 -0.13776362 -0.13123628 -0.13123567
  0.22858044  0.22858141  0.35208992  0.35209129  0.35209461  0.35209607] [ 0.55779329  0.55779458  0.71027657  0.71027842  0.76991394  0.76991587
  0.76992249  0.76992315  1.18243407  1.18243691  1.1824845   1.1824864
  1.25628785  1.25629414  1.39168664  1.39169173  1.41063446  1.41063553
  1.41065261  1.41065472  1.72037076  1.72037276  1.72039462  1.72039734
  1.81890183  1.81890292  2.1464127   2.14641373  2.14641666  2.1464174
  2.28773492  2.28773805  2.37666326  2.37666522  2.42917958  2.42918004
  2.42918063  2.42918178  2.58986894  2.58986955  2.74483505  2.74483735
  2.74484242  2.74484423  3.01795809  3.01795946  3.32265731  3.32265822
  3.32267902  3.32268043  5.98217308  5.98217394 10.32543176 10.32543219
 10.32543282 10.32543487 10.33274987 10.33275017]
   2 ( 0.000  0.500  0.000)   [-0.1897882  -0.18660844 -0.14637316 -0.14570924 -0.14254961 -0.14090953
 -0.13936537 -0.13930109 -0.13654856 -0.13546577 -0.08084449 -0.05619926
  0.12945124  0.17346579  0.21239349  0.26810221  0.28827661  0.33468391] [ 0.58718304  0.60476242  0.64927117  0.71339057  0.78026305  0.7863696
  0.87756868  0.89328081  0.90888011  1.1165115   1.19750498  1.2404159
  1.31836377  1.38783341  1.40179224  1.42178352  1.46987027  1.47293911
  1.55853583  1.57621087  1.60511251  1.69537926  1.72635952  1.80793954
  1.9518282   1.95720721  2.00836117  2.02324616  2.15524353  2.16463236
  2.1851328   2.23424282  2.27461476  2.28472371  2.47108701  2.56910989
  2.57552335  2.63229146  2.71587587  2.75479478  2.84661097  2.85337003
  2.9579833   3.03043974  3.08139364  3.1032034   3.1592311   3.21311625
  3.2514883   3.30856761  5.99118934  6.00270929  9.54222939 10.15049991
 10.23443667 10.39752234 10.68261694 10.73998091]
   3 ( 0.000  0.500  0.500)   [-0.18653394 -0.18653369 -0.14648055 -0.14647983 -0.14233948 -0.14233931
 -0.13862459 -0.13862455 -0.13632846 -0.13632754 -0.0698135  -0.06981261
  0.12347427  0.12347522  0.29848504  0.29848597  0.29988701  0.2998875 ] [ 0.56857845  0.56858365  0.68033693  0.68033919  0.77697484  0.77697725
  0.84744073  0.84744126  1.02297349  1.02297689  1.2629597   1.26296177
  1.33015134  1.33015362  1.39760897  1.39761097  1.43365394  1.43365503
  1.60630943  1.6063101   1.69931715  1.69931859  1.86525706  1.8652574
  1.93811248  1.93811431  2.08451973  2.08452026  2.08597357  2.08597467
  2.16335457  2.16335517  2.2380508   2.23805394  2.59613662  2.59613793
  2.6588853   2.65888547  2.69520428  2.6952061   2.88904118  2.88904367
  2.90289189  2.90289204  2.99292455  2.992925    3.19698759  3.19698801
  3.23240237  3.23240403  5.99398627  5.99398725  9.72437344  9.72437494
 10.3944575  10.39445793 10.51663343 10.51663487]
   4 ( 0.500  0.000  0.000)   [-0.18978722 -0.18662364 -0.14639807 -0.1456881  -0.14255496 -0.14092461
 -0.13935616 -0.13928909 -0.1365442  -0.13544907 -0.08084065 -0.05621473
  0.12946272  0.17347932  0.21240757  0.26811069  0.28826217  0.33468964] [ 0.58713361  0.60474327  0.64926467  0.71338364  0.78026994  0.78640379
  0.87757543  0.89331048  0.90889103  1.11649463  1.19754567  1.24038853
  1.31839092  1.38781982  1.40180645  1.42178352  1.46988714  1.47296261
  1.55847393  1.57621614  1.60512151  1.69538236  1.72642458  1.80795049
  1.95184458  1.95717503  2.00836523  2.02321416  2.15523449  2.16463189
  2.18512512  2.23426938  2.27462678  2.28474447  2.47108993  2.56911715
  2.57553542  2.63228387  2.71587049  2.75481909  2.84663936  2.85334631
  2.95798222  3.03045199  3.08138384  3.10321514  3.1592441   3.21306539
  3.25148563  3.30859939  5.99119053  6.00270967  9.5422166  10.15047693
 10.23443276 10.397552   10.68262062 10.739969  ]
   5 ( 0.500  0.000  0.500)   [-0.18654187 -0.18654143 -0.14649373 -0.14649366 -0.14232134 -0.14232055
 -0.13862608 -0.13862547 -0.13632107 -0.13632033 -0.06982012 -0.06981947
  0.12348495  0.12348658  0.29849232  0.2984933   0.2998887   0.29988891] [ 0.56856217  0.56856513  0.68031488  0.68031623  0.77699372  0.77699655
  0.84744856  0.84744929  1.0229661   1.02296991  1.26299447  1.26299587
  1.33016992  1.33017135  1.39760341  1.39760692  1.43365244  1.43365326
  1.60630756  1.60630843  1.69934254  1.69934405  1.86525235  1.86525399
  1.93813415  1.93813547  2.08452095  2.08452208  2.08594886  2.08594984
  2.16333285  2.16333379  2.23809551  2.23809701  2.59611646  2.59611713
  2.65888494  2.65888603  2.69521827  2.69521895  2.88906615  2.88906776
  2.90289218  2.9028925   2.99291912  2.99291969  3.19700853  3.19700897
  3.23238428  3.23238532  5.9939872   5.99398804  9.72434485  9.7243457
 10.39448053 10.39448077 10.51662721 10.51662816]
   6 ( 0.500  0.500  0.000)   [-0.18978706 -0.18662357 -0.14639804 -0.14568831 -0.14255493 -0.14092451
 -0.1393563  -0.13928903 -0.13654422 -0.13544914 -0.08084048 -0.05621474
  0.12946248  0.17347939  0.21240767  0.26811011  0.2882616   0.33468947] [ 0.58713497  0.6047435   0.64926399  0.71338371  0.78026896  0.78640324
  0.87757546  0.89330872  0.90889003  1.11649643  1.19754419  1.24039192
  1.31838968  1.387818    1.40180772  1.42178474  1.46988657  1.47296166
  1.55847474  1.57621623  1.60512182  1.69538196  1.72642337  1.80795026
  1.95184494  1.95717487  2.00836543  2.02321439  2.15523546  2.16463136
  2.18512538  2.23426836  2.27462641  2.28474262  2.47108936  2.56911708
  2.57553736  2.63228521  2.71587016  2.75481782  2.84663822  2.85334764
  2.95798218  3.03045089  3.08138474  3.10321376  3.15924457  3.21306541
  3.25148652  3.30859765  5.99119058  6.00270975  9.54221598 10.15047675
 10.23443193 10.39755217 10.68262091 10.73996843]
   7 ( 0.500  0.500  0.500)   [-0.18654167 -0.18654139 -0.14649371 -0.14649356 -0.14232134 -0.14232094
 -0.13862595 -0.13862547 -0.13632108 -0.13632038 -0.06982008 -0.06981931
  0.12348494  0.12348604  0.29849165  0.29849315  0.29988871  0.29988922] [ 0.56856167  0.56856524  0.68031468  0.6803165   0.7769941   0.77699669
  0.84744769  0.84744834  1.02296689  1.02297025  1.26299272  1.26299434
  1.33016998  1.33017156  1.39760672  1.39760699  1.43365091  1.43365304
  1.60630797  1.60630874  1.699342    1.69934391  1.8652523   1.86525372
  1.93813368  1.93813516  2.08452175  2.08452273  2.08594887  2.08594966
  2.16333216  2.16333408  2.23809455  2.23809563  2.59611631  2.59611804
  2.65888562  2.65888665  2.69521745  2.69521782  2.8890652   2.8890668
  2.90289257  2.90289295  2.99291992  2.99292025  3.19700622  3.19700778
  3.23238488  3.23238639  5.9939872   5.99398814  9.72434483  9.72434539
 10.39448055 10.39448108 10.51662683 10.51662715]
nelec by numeric integration = 36.000154494049845
    CPU time for vxc     18.09 sec, wall time      0.78 sec
    CPU time for get_j     15.86 sec, wall time      0.67 sec
    CPU time for vj and vk     15.86 sec, wall time      0.67 sec
Ewald components = 6.77773183084737, -128.779455527716, 5.42224205397643
E1 = (-87.6372744332935-2.62335210067803e-17j)  Ecoul = 60.40106306365515  Exc = -25.729858289335354
cycle= 6 E= -169.545551301866  delta_E= -1.25e-06  |g|= 0.000922  |ddm|= 0.0124
    CPU time for cycle= 6     35.39 sec, wall time      1.51 sec
HOMO = 0.372655997666  LUMO = 0.483811043794
     k-point                  mo_energy
   0 ( 0.000  0.000  0.000)   [-0.21204298 -0.18976913 -0.14883644 -0.14802982 -0.14801974 -0.1459304
 -0.14592646 -0.13981947 -0.13979522 -0.13645929 -0.13642848 -0.07630868
  0.10661819  0.33265658  0.33266463  0.36984598  0.37265486  0.372656  ] [ 0.48381104  0.54798053  0.74148307  0.74148579  0.74574201  0.77326042
  0.81575222  0.81577153  1.10434168  1.10439127  1.16370083  1.26930081
  1.2693141   1.32241905  1.32247299  1.33093306  1.33529384  1.45853634
  1.48563344  1.48565471  1.56992908  1.64898481  1.64900453  1.93664368
  1.93664887  1.99204114  1.99204913  1.99435901  2.04288949  2.04289599
  2.17337555  2.26673418  2.30281266  2.30941518  2.38439354  2.38439891
  2.49471729  2.49472496  2.57445325  2.64428555  2.6752119   2.6752253
  2.96471431  2.96471546  3.08686847  3.24182613  3.30092057  3.3009625
  3.34197207  3.34197786  5.97731932  6.00035097 10.29408594 10.32453424
 10.32454065 10.40565865 10.40567244 10.60924752]
   1 ( 0.000  0.000  0.500)   [-0.19543281 -0.1954316  -0.14732547 -0.14732525 -0.14731791 -0.14731761
 -0.13782416 -0.13782369 -0.13779717 -0.13779688 -0.13126138 -0.13126107
  0.22855559  0.22855715  0.35208366  0.35208541  0.35208844  0.35209012] [ 0.55780123  0.55780183  0.7102579   0.71026079  0.76990953  0.76991174
  0.76991823  0.76991885  1.18242199  1.18242473  1.18247245  1.1824742
  1.25628426  1.25629058  1.39166943  1.39167438  1.4106188   1.41061998
  1.41063694  1.41063921  1.72037134  1.72037193  1.7203952   1.72039651
  1.81889619  1.8188969   2.14640548  2.14640621  2.14640946  2.14640987
  2.28773388  2.28773709  2.37666332  2.37666616  2.42917389  2.42917404
  2.4291749   2.42917547  2.5898513   2.58985151  2.74482634  2.74482678
  2.74483336  2.74483402  3.01793936  3.01794048  3.322655    3.32265637
  3.32267724  3.32267806  5.98213706  5.9821371  10.32541766 10.3254183
 10.3254189  10.32542061 10.33273078 10.33273114]
   2 ( 0.000  0.500  0.000)   [-0.18980822 -0.18663181 -0.1464059  -0.14574139 -0.14258313 -0.14094208
 -0.13939782 -0.13933487 -0.1365816  -0.13549915 -0.08086796 -0.05621895
  0.12945437  0.17346959  0.21236871  0.26809791  0.28825392  0.3346808 ] [ 0.58719219  0.60475607  0.64925204  0.71336998  0.78024344  0.78635731
  0.87756268  0.89327888  0.9088688   1.11649759  1.19750851  1.24040875
  1.31836255  1.38783364  1.40179559  1.42178145  1.46985777  1.47294667
  1.55852384  1.57620977  1.60509208  1.69536085  1.7263444   1.80793353
  1.95182478  1.95720437  2.00834374  2.02323525  2.15523047  2.16462477
  2.1851297   2.23423839  2.2746055   2.28471557  2.47107123  2.56910007
  2.57551607  2.63228091  2.71586977  2.75478809  2.84660164  2.85335783
  2.95798269  3.03043507  3.08138631  3.10319723  3.15921251  3.21309615
  3.25148651  3.30856715  5.99115215  6.00267215  9.54221466 10.15048246
 10.23442204 10.39750498 10.68259919 10.73996538]
   3 ( 0.000  0.500  0.500)   [-0.18655633 -0.18655529 -0.14651287 -0.14651251 -0.14237202 -0.14237146
 -0.13865843 -0.13865806 -0.13636124 -0.13636103 -0.06983481 -0.06983421
  0.12347178  0.12347343  0.2984806   0.29848247  0.29986877  0.29987006] [ 0.56856938  0.56857406  0.68033167  0.68033289  0.7769654   0.7769676
  0.847425    0.84742522  1.0229672   1.02297051  1.262959    1.26296188
  1.33013858  1.33014099  1.39760989  1.39761104  1.43365788  1.43365802
  1.60629621  1.60629684  1.69930257  1.69930421  1.86524352  1.86524376
  1.9381008   1.93810249  2.08451602  2.08451666  2.08596992  2.08597052
  2.16334449  2.16334527  2.2380442   2.23804759  2.59612617  2.5961265
  2.65888214  2.65888283  2.6951971   2.69519931  2.88902896  2.88903136
  2.90288028  2.90288163  2.99291926  2.99292018  3.19698638  3.19698898
  3.23238557  3.23238626  5.99394993  5.9939501   9.72435821  9.72436013
 10.39444124 10.3944414  10.51661855 10.51661948]
   4 ( 0.500  0.000  0.000)   [-0.18980725 -0.18664701 -0.14643081 -0.14572024 -0.1425885  -0.14095714
 -0.13938861 -0.13932289 -0.13657723 -0.13548245 -0.08086411 -0.05623443
  0.12946586  0.17348309  0.21238281  0.26810639  0.28823947  0.33468653] [ 0.58714278  0.60473696  0.64924555  0.71336303  0.78025033  0.7863915
  0.87756942  0.89330855  0.90887972  1.11648071  1.1975492   1.24038139
  1.31838969  1.38782005  1.40180978  1.42178144  1.46987464  1.47297017
  1.55846196  1.57621504  1.6051011   1.69536394  1.72640947  1.80794448
  1.95184116  1.95717219  2.00834778  2.02320325  2.15522144  2.16462431
  2.18512202  2.23426496  2.27461753  2.28473633  2.47107414  2.56910732
  2.57552815  2.63227332  2.71586439  2.7548124   2.84663003  2.85333412
  2.95798161  3.03044732  3.08137652  3.10320897  3.15922551  3.2130453
  3.25148386  3.30859894  5.99115335  6.00267253  9.54220187 10.15045947
 10.23441814 10.39753464 10.68260286 10.73995348]
   5 ( 0.500  0.000  0.500)   [-0.18656399 -0.1865633  -0.14652637 -0.14652602 -0.14235337 -0.14235321
 -0.13865967 -0.13865925 -0.13635388 -0.13635378 -0.06984167 -0.06984081
  0.12348318  0.12348403  0.29848798  0.2984897   0.29987028  0.29987166] [ 0.56855293  0.56855571  0.68030934  0.6803102   0.77698487  0.77698632
  0.8474327   0.84743336  1.0229597   1.02296363  1.26299405  1.26299571
  1.33015708  1.33015882  1.39760446  1.39760683  1.43365549  1.43365712
  1.60629439  1.60629511  1.69932796  1.69932966  1.86523897  1.86524018
  1.93812247  1.93812366  2.08451723  2.08451848  2.08594516  2.08594574
  2.16332287  2.16332379  2.23808938  2.23809018  2.59610518  2.59610655
  2.65888199  2.65888318  2.69521135  2.69521189  2.88905368  2.88905569
  2.90288053  2.90288214  2.99291355  2.99291516  3.19700752  3.19700975
  3.23236708  3.23236796  5.99395086  5.99395089  9.72432973  9.72433077
 10.394464   10.3944645  10.5166123  10.51661281]
   6 ( 0.500  0.500  0.000)   [-0.18980709 -0.18664694 -0.14643078 -0.14572045 -0.14258846 -0.14095704
 -0.13938876 -0.13932283 -0.13657725 -0.13548252 -0.08086394 -0.05623445
  0.12946562  0.17348316  0.2123829   0.26810581  0.2882389   0.33468636] [ 0.58714414  0.60473719  0.64924487  0.71336309  0.78024935  0.78639095
  0.87756945  0.89330679  0.90887872  1.11648252  1.19754773  1.24038478
  1.31838844  1.38781822  1.40181105  1.42178266  1.46987406  1.47296922
  1.55846276  1.57621513  1.60510141  1.69536354  1.72640825  1.80794425
  1.95184152  1.95717202  2.00834798  2.02320348  2.15522241  2.16462377
  2.18512229  2.23426394  2.27461716  2.28473448  2.47107357  2.56910725
  2.57553008  2.63227466  2.71586406  2.75481113  2.84662888  2.85333545
  2.95798157  3.03044622  3.08137742  3.10320759  3.15922597  3.21304531
  3.25148475  3.3085972   5.9911534   6.00267262  9.54220124 10.15045929
 10.23441732 10.39753481 10.68260315 10.7399529 ]
   7 ( 0.500  0.500  0.500)   [-0.18656395 -0.1865631  -0.14652626 -0.14652601 -0.14235364 -0.14235333
 -0.13865953 -0.13865926 -0.13635392 -0.13635381 -0.06984151 -0.06984076
  0.12348281  0.12348386  0.29848783  0.29848903  0.29987055  0.29987172] [ 0.56855248  0.56855578  0.68030939  0.68031023  0.77698529  0.77698641
  0.84743202  0.84743223  1.02296041  1.02296404  1.26299281  1.26299366
  1.33015703  1.33015914  1.39760664  1.39760803  1.43365486  1.43365602
  1.60629484  1.60629538  1.69932742  1.69932953  1.86523894  1.86523989
  1.938122    1.93812335  2.084518    2.08451917  2.0859452   2.08594552
  2.16332233  2.16332394  2.23808781  2.23808941  2.59610582  2.59610664
  2.65888295  2.65888353  2.69521038  2.69521091  2.88905299  2.88905449
  2.90288122  2.90288229  2.99291464  2.99291543  3.19700643  3.19700733
  3.23236793  3.23236878  5.99395086  5.99395099  9.72432968  9.72433049
 10.39446421 10.39446463 10.51661146 10.51661227]
nelec by numeric integration = 36.00015448689078
    CPU time for vxc     18.27 sec, wall time      0.80 sec
    CPU time for get_j     15.43 sec, wall time      0.64 sec
    CPU time for vj and vk     15.43 sec, wall time      0.64 sec
Ewald components = 6.77773183084737, -128.779455527716, 5.42224205397643
E1 = (-87.63779476628353-2.6233535818311623e-17j)  Ecoul = 60.401699356561615  Exc = -25.729974272876806
cycle= 7 E= -169.545551325491  delta_E= -2.36e-08  |g|= 9.76e-05  |ddm|= 0.00242
    CPU time for cycle= 7     35.05 sec, wall time      1.50 sec
HOMO = 0.372654402209  LUMO = 0.483809680307
     k-point                  mo_energy
   0 ( 0.000  0.000  0.000)   [-0.21204419 -0.18976946 -0.14883461 -0.14802984 -0.14801977 -0.14593084
 -0.1459269  -0.13981856 -0.1397943  -0.13645797 -0.13642716 -0.07630805
  0.10661816  0.33265529  0.33266334  0.36984468  0.37265327  0.3726544 ] [ 0.48380968  0.54797895  0.74148219  0.74148491  0.74574125  0.7732614
  0.81575094  0.81577025  1.10434104  1.10439063  1.16370054  1.26930052
  1.2693138   1.32241826  1.3224722   1.3309336   1.33529407  1.45853801
  1.48563281  1.48565408  1.56992776  1.64898441  1.64900412  1.93664316
  1.93664835  1.99204143  1.99204941  1.99435622  2.04289056  2.04289705
  2.1733756   2.26673155  2.30281158  2.30941244  2.38439326  2.38439863
  2.49471642  2.4947241   2.57445115  2.64428405  2.67521052  2.67522391
  2.9647141   2.96471525  3.08686771  3.24182548  3.30091913  3.30096106
  3.34197108  3.34197686  5.97732017  6.00035179 10.29408811 10.32453335
 10.32453975 10.40565764 10.40567143 10.60924977]
   1 ( 0.000  0.000  0.500)   [-0.19543497 -0.19543146 -0.14732578 -0.14732533 -0.14731828 -0.14731763
 -0.13782299 -0.1378227  -0.13779612 -0.13779576 -0.13126007 -0.13125931
  0.22855467  0.22855684  0.3520805   0.3520852   0.35208572  0.3520905 ] [ 0.55779861  0.55780115  0.710259    0.71025982  0.76990901  0.76991023
  0.76991687  0.76991817  1.18242098  1.18242413  1.18247158  1.18247345
  1.25628405  1.25629075  1.39167028  1.39167545  1.41061854  1.41061967
  1.4106367   1.41063888  1.72036943  1.72037302  1.72039329  1.7203976
  1.81889451  1.81889621  2.14640545  2.14640711  2.14640942  2.14641077
  2.28773164  2.28773396  2.37666172  2.37666259  2.42917229  2.42917266
  2.42917518  2.42917624  2.58985107  2.58985181  2.74482323  2.74482827
  2.74483061  2.74483517  3.01793705  3.01794056  3.32265271  3.32265611
  3.32267438  3.32267835  5.98213754  5.98213831 10.32541673 10.32541734
 10.32541794 10.32541972 10.33273302 10.33273329]
   2 ( 0.000  0.500  0.000)   [-0.18980864 -0.18663203 -0.14640511 -0.14574019 -0.1425814  -0.14094133
 -0.13939768 -0.1393335  -0.13658182 -0.13549833 -0.08086871 -0.05621973
  0.12945344  0.17346792  0.21236825  0.26809659  0.28825375  0.33467897] [ 0.5871912   0.60475495  0.64925061  0.71336911  0.78024303  0.78635624
  0.8775634   0.89327873  0.90886733  1.11649676  1.19750841  1.24040733
  1.31836124  1.38783209  1.40179503  1.4217828   1.46985772  1.47294517
  1.55852371  1.57621012  1.60509227  1.69535901  1.72634288  1.80793362
  1.95182399  1.95720405  2.00834318  2.02323498  2.15522987  2.16462328
  2.18512955  2.23423768  2.27460621  2.28471591  2.47107084  2.56909922
  2.57551636  2.63228169  2.71586899  2.75478756  2.84660017  2.85335616
  2.95798108  3.03043497  3.08138527  3.10319521  3.15921169  3.21309536
  3.25148563  3.30856677  5.991153    6.00267308  9.54221371 10.15048253
 10.23442097 10.39750697 10.68260017 10.73996442]
   3 ( 0.000  0.500  0.500)   [-0.18655705 -0.18655518 -0.14651215 -0.14651149 -0.14237083 -0.1423708
 -0.13865682 -0.13865679 -0.1363615  -0.1363607  -0.06983674 -0.06983376
  0.12347086  0.12347246  0.29847787  0.29848215  0.29986728  0.29986953] [ 0.56856833  0.56857427  0.68032987  0.68033334  0.7769635   0.7769671
  0.8474234   0.84742487  1.02296658  1.02297026  1.26295955  1.26296129
  1.330138    1.33014001  1.39760876  1.3976121   1.43365518  1.43365784
  1.6062963   1.60629688  1.69930123  1.6993019   1.86524338  1.86524404
  1.93810106  1.93810294  2.08451457  2.08451512  2.08596895  2.08597101
  2.16334449  2.16334516  2.23804405  2.23804726  2.59612358  2.59612651
  2.65888233  2.6588831   2.69519724  2.69519887  2.88902662  2.88903092
  2.90287846  2.90287998  2.99291843  2.99292013  3.19698557  3.19698826
  3.23238372  3.23238647  5.99395046  5.99395136  9.72435845  9.72436019
 10.39444208 10.39444237 10.51661744 10.51661859]
   4 ( 0.500  0.000  0.000)   [-0.18980766 -0.18664723 -0.14643002 -0.14571905 -0.14258676 -0.14095638
 -0.13938847 -0.13932154 -0.13657745 -0.13548163 -0.08086486 -0.0562352
  0.12946492  0.17348142  0.21238235  0.26810507  0.28823931  0.33468469] [ 0.58714179  0.60473583  0.64924411  0.71336216  0.78024992  0.78639042
  0.87757014  0.89330839  0.90887824  1.11647989  1.19754911  1.24037996
  1.31838838  1.3878185   1.40180923  1.4217828   1.46987459  1.47296867
  1.55846183  1.57621539  1.60510129  1.6953621   1.72640795  1.80794457
  1.95184036  1.95717187  2.00834722  2.02320299  2.15522083  2.16462281
  2.18512187  2.23426425  2.27461825  2.28473667  2.47107376  2.56910647
  2.57552844  2.63227411  2.71586361  2.75481187  2.84662855  2.85333245
  2.95798     3.03044722  3.08137547  3.10320694  3.15922468  3.21304451
  3.25148297  3.30859856  5.9911542   6.00267346  9.54220092 10.15045955
 10.23441707 10.39753663 10.68260385 10.73995252]
   5 ( 0.500  0.000  0.500)   [-0.18656504 -0.18656286 -0.14652537 -0.14652529 -0.14235269 -0.14235204
 -0.13865833 -0.1386577  -0.1363541  -0.13635349 -0.06984334 -0.06984063
  0.12348114  0.12348419  0.29848513  0.29848951  0.29986891  0.299871  ] [ 0.56855222  0.56855559  0.68030788  0.6803103   0.77698212  0.77698667
  0.84743139  0.84743272  1.02295933  1.02296313  1.2629938   1.26299592
  1.3301564   1.33015795  1.39760313  1.39760811  1.43365415  1.43365559
  1.6062944   1.60629524  1.69932662  1.69932737  1.86523866  1.86524062
  1.93812273  1.93812411  2.08451596  2.08451677  2.0859443   2.08594612
  2.16332274  2.16332381  2.23808844  2.23809065  2.59610364  2.59610551
  2.65888219  2.65888344  2.69521068  2.69521226  2.88905153  2.88905507
  2.90287897  2.90288023  2.99291339  2.99291444  3.19700633  3.1970094
  3.23236571  3.23236769  5.9939514   5.99395216  9.72432996  9.72433085
 10.39446503 10.39446528 10.51661122 10.51661189]
   6 ( 0.500  0.500  0.000)   [-0.1898075  -0.18664716 -0.14642998 -0.14571926 -0.14258673 -0.14095628
 -0.13938862 -0.13932147 -0.13657747 -0.1354817  -0.0808647  -0.05623521
  0.12946468  0.17348149  0.21238244  0.26810449  0.28823874  0.33468453] [ 0.58714315  0.60473606  0.64924343  0.71336223  0.78024894  0.78638987
  0.87757018  0.89330663  0.90887725  1.11648169  1.19754763  1.24038336
  1.31838714  1.38781667  1.4018105   1.42178401  1.46987401  1.47296772
  1.55846264  1.57621548  1.60510159  1.6953617   1.72640673  1.80794434
  1.95184072  1.95717171  2.00834743  2.02320321  2.1552218   2.16462228
  2.18512213  2.23426322  2.27461787  2.28473482  2.47107318  2.5691064
  2.57553037  2.63227545  2.71586329  2.7548106   2.84662741  2.85333378
  2.95797996  3.03044612  3.08137637  3.10320557  3.15922515  3.21304452
  3.25148386  3.30859682  5.99115425  6.00267354  9.5422003  10.15045937
 10.23441624 10.3975368  10.68260414 10.73995195]
   7 ( 0.500  0.500  0.500)   [-0.18656485 -0.18656282 -0.1465253  -0.14652523 -0.14235269 -0.14235243
 -0.1386582  -0.1386577  -0.13635411 -0.13635354 -0.0698433  -0.06984046
  0.12348123  0.12348356  0.29848445  0.29848936  0.29986895  0.29987129] [ 0.56855169  0.56855574  0.68030761  0.68031065  0.77698247  0.77698683
  0.84743035  0.84743196  1.02296019  1.02296339  1.2629918   1.26299464
  1.33015668  1.33015793  1.39760669  1.39760793  1.43365215  1.43365584
  1.60629478  1.60629558  1.69932609  1.69932722  1.8652386   1.86524036
  1.93812227  1.93812379  2.08451696  2.08451722  2.08594423  2.08594602
  2.16332201  2.16332415  2.23808784  2.23808891  2.59610332  2.59610658
  2.65888267  2.65888426  2.69520979  2.6952112   2.88905042  2.88905428
  2.9028791   2.90288095  2.99291373  2.99291546  3.19700389  3.19700833
  3.23236628  3.2323688   5.99395139  5.99395226  9.72432988  9.72433059
 10.39446511 10.39446554 10.51661057 10.51661115]
nelec by numeric integration = 36.00015448658175
    CPU time for vxc     20.87 sec, wall time      0.84 sec
    CPU time for get_j     20.24 sec, wall time      0.83 sec
    CPU time for vj and vk     20.26 sec, wall time      0.83 sec
Ewald components = 6.77773183084737, -128.779455527716, 5.42224205397643
E1 = (-87.63778402360649-2.6233606770006762e-17j)  Ecoul = 60.40169185814361  Exc = -25.72997751713751
Extra cycle  E= -169.545551325492  delta_E= -1.65e-12  |g|= 0.000103  |ddm|= 0.000366
    CPU time for scf_cycle    833.42 sec, wall time     41.75 sec
    CPU time for SCF    833.56 sec, wall time     41.76 sec
converged SCF energy = -169.545551325492

******** <class 'pyscf.pbc.gw.krgw_ac.KRGWAC'> ********
method = KRGWAC
GW nocc = 18, nvir = 58, nkpts = 8
frozen orbitals 0
use perturbative linearized QP eqn = False
analytic continuation method = pade
GW finite size corrections = True
nelec by numeric integration = 36.00015448658175
    CPU time for vxc     19.92 sec, wall time      0.80 sec
    CPU time for get_j     15.17 sec, wall time      0.61 sec
    CPU time for vj and vk     15.18 sec, wall time      0.61 sec
    CPU time for get_j     15.51 sec, wall time      0.64 sec
    CPU time for vj and vk     15.51 sec, wall time      0.64 sec
Rebuild CDERI for exchange integrals


******** <class 'pyscf.pbc.df.df.GDF'> ********
auxbasis = {'Ga': [[0, [7.4303029432, 1]], [0, [3.7151514716, 1]], [0, [1.8575757358, 1]], [0, [0.9287878679, 1]], [0, [0.46439393395, 1]], [1, [7.4303029432, 1]], [1, [3.7151514716, 1]], [1, [1.8575757358, 1]], [1, [0.9287878679, 1]], [1, [0.46439393395, 1]], [2, [7.4303029432, 1]], [2, [3.7151514716, 1]], [2, [1.8575757358, 1]], [2, [0.9287878679, 1]], [2, [0.46439393395, 1]], [3, [7.4303029432, 1]], [3, [3.7151514716, 1]], [3, [1.8575757358, 1]], [3, [0.9287878679, 1]], [3, [0.46439393395, 1]], [4, [7.4303029432, 1]], [4, [3.7151514716, 1]], [4, [1.8575757358, 1]], [4, [0.9287878679, 1]], [4, [0.46439393395, 1]], [5, [7.4303029432, 1]], [5, [3.7151514716, 1]], [5, [1.8575757358, 1]], [5, [0.9287878679, 1]], [5, [0.46439393395, 1]], [6, [7.4303029432, 1]], [6, [3.7151514716, 1]], [6, [1.8575757358, 1]], [6, [0.9287878679, 1]], [6, [0.46439393395, 1]]], 'N': [[0, [10.4206262528, 1]], [0, [5.2103131264, 1]], [0, [2.6051565632, 1]], [0, [1.3025782816, 1]], [0, [0.6512891408, 1]], [0, [0.3256445704, 1]], [1, [10.4206262528, 1]], [1, [5.2103131264, 1]], [1, [2.6051565632, 1]], [1, [1.3025782816, 1]], [1, [0.6512891408, 1]], [1, [0.3256445704, 1]], [2, [10.4206262528, 1]], [2, [5.2103131264, 1]], [2, [2.6051565632, 1]], [2, [1.3025782816, 1]], [2, [0.6512891408, 1]], [2, [0.3256445704, 1]], [3, [2.9178162465339725, 1]], [3, [1.4589081232669863, 1]], [3, [0.7294540616334931, 1]], [4, [1.634, 1]]]}
exp_to_discard = 0.1
_cderi = /tmp/tmpqv93231k  where DF integrals are loaded (readonly).
len(kpts) = 8
Even tempered Gaussians are generated as DF auxbasis for  Ga N
  ETB auxbasis for Ga  [[0, [7.4303029432, 1]], [0, [3.7151514716, 1]], [0, [1.8575757358, 1]], [0, [0.9287878679, 1]], [0, [0.46439393395, 1]], [1, [7.4303029432, 1]], [1, [3.7151514716, 1]], [1, [1.8575757358, 1]], [1, [0.9287878679, 1]], [1, [0.46439393395, 1]], [2, [7.4303029432, 1]], [2, [3.7151514716, 1]], [2, [1.8575757358, 1]], [2, [0.9287878679, 1]], [2, [0.46439393395, 1]], [3, [7.4303029432, 1]], [3, [3.7151514716, 1]], [3, [1.8575757358, 1]], [3, [0.9287878679, 1]], [3, [0.46439393395, 1]], [4, [7.4303029432, 1]], [4, [3.7151514716, 1]], [4, [1.8575757358, 1]], [4, [0.9287878679, 1]], [4, [0.46439393395, 1]], [5, [7.4303029432, 1]], [5, [3.7151514716, 1]], [5, [1.8575757358, 1]], [5, [0.9287878679, 1]], [5, [0.46439393395, 1]], [6, [7.4303029432, 1]], [6, [3.7151514716, 1]], [6, [1.8575757358, 1]], [6, [0.9287878679, 1]], [6, [0.46439393395, 1]]]
  ETB auxbasis for N  [[0, [10.4206262528, 1]], [0, [5.2103131264, 1]], [0, [2.6051565632, 1]], [0, [1.3025782816, 1]], [0, [0.6512891408, 1]], [0, [0.3256445704, 1]], [1, [10.4206262528, 1]], [1, [5.2103131264, 1]], [1, [2.6051565632, 1]], [1, [1.3025782816, 1]], [1, [0.6512891408, 1]], [1, [0.3256445704, 1]], [2, [10.4206262528, 1]], [2, [5.2103131264, 1]], [2, [2.6051565632, 1]], [2, [1.3025782816, 1]], [2, [0.6512891408, 1]], [2, [0.3256445704, 1]], [3, [2.9178162465339725, 1]], [3, [1.4589081232669863, 1]], [3, [0.7294540616334931, 1]], [4, [1.634, 1]]]
num shells = 114, num cGTOs = 658
Drop 0 primitive fitting functions
make aux basis, num shells = 114, num cGTOs = 658
auxcell.rcut 12.042448909537999

WARN: File /tmp/tmpqv93231k (specified by ._cderi) is overwritten by GDF initialization.

kmesh for bvk-cell = [2 2 2]


******** <class 'pyscf.pbc.df.rsdf_builder._RSGDFBuilder'> ********
mesh = [11 11 15] (1815 PWs)
ke_cutoff = 10.055261543215941
omega = 0.3681660464171422
exclude_d_aux = True
exclude_dd_block = True
j2c_eig_always = False
has_long_range = True
Set _RSGDFBuilder.direct_scf_tol to 7.81e-15
rs_cell.nbas 14 nao 76
No. smooth_bas in rs_cell 0
rs_cell.nbas 114 nao 658
No. smooth_bas in rs_cell 0
sup-mol nbas = 5248 cGTO = 28753 pGTO = 77834
sup-mol-ft nbas = 4027 cGTO = 21846 pGTO = 58631
    CPU time for int3c kernel initialization      1.13 sec, wall time      0.05 sec
    CPU time for pass1: real space int3c2e    310.68 sec, wall time     21.45 sec
Set ft_ao cutoff to 4.30028e-11
Num uniq kpts 8
Set 2c2e integrals precision 1e-12, mesh [11 11 15]
    CPU time for int2c2e     19.28 sec, wall time      0.78 sec
    CPU time for pass2: AFT int3c2e    389.79 sec, wall time     27.24 sec
Ewald components = 8.76453321006536e-07, -0.162059015555054, 0.068912395876923
    CPU time for get_k_kpts    120.83 sec, wall time      4.88 sec
    CPU time for get_j     16.95 sec, wall time      0.76 sec
    CPU time for vj and vk    137.79 sec, wall time      5.64 sec
    CPU time for get_j     15.39 sec, wall time      0.66 sec
    CPU time for vj and vk     15.40 sec, wall time      0.66 sec
atom Ga rad-grids = 120, ang-grids = [ 50  50  50  50  50  50  50  50  50  50  50  50  50  50  50  50  50  50
  50  50  50  50  50  50  50  50  50  50  50  50  50  50  50  50  50  50
  50  50  50  50  50  50  86  86  86  86  86  86  86  86  86  86  86  86
  86  86  86  86  86  86 590 590 590 590 590 590 590 590 590 590 590 590
 770 770 770 770 770 770 770 770 770 770 770 770 770 770 770 770 770 770
 770 770 770 770 770 770 590 590 590 590 590 590 590 590 590 590 590 590
 590 590 590 590 590 590 590 590 590 590 590 590]
atom N rad-grids = 105, ang-grids = [ 50  50  50  50  50  50  50  50  50  50  50  50  50  50  50  50  50  50
  50  50  50  50  50  50  50  50  50  50  50  50  50  50  50  50  50  86
  86  86  86  86  86  86  86  86  86  86 590 590 590 590 590 590 590 590
 770 770 770 770 770 770 770 770 770 770 770 770 770 770 770 770 770 770
 770 770 770 770 770 590 590 590 590 590 590 590 590 590 590 590 590 590
 590 590 590 590 590 590 590 590 590 590 590 590 590 590 590]
Read Lpq (kL: 1 / 8, ki: 0, kj: 0)
Read Lpq (kL: 1 / 8, ki: 1, kj: 1)
Read Lpq (kL: 1 / 8, ki: 2, kj: 2)
Read Lpq (kL: 1 / 8, ki: 3, kj: 3)
Read Lpq (kL: 1 / 8, ki: 4, kj: 4)
Read Lpq (kL: 1 / 8, ki: 5, kj: 5)
Read Lpq (kL: 1 / 8, ki: 6, kj: 6)
Read Lpq (kL: 1 / 8, ki: 7, kj: 7)
Read Lpq (kL: 2 / 8, ki: 0, kj: 1)
Read Lpq (kL: 2 / 8, ki: 1, kj: 0)
Read Lpq (kL: 2 / 8, ki: 2, kj: 3)
Read Lpq (kL: 2 / 8, ki: 3, kj: 2)
Read Lpq (kL: 2 / 8, ki: 4, kj: 5)
Read Lpq (kL: 2 / 8, ki: 5, kj: 4)
Read Lpq (kL: 2 / 8, ki: 6, kj: 7)
Read Lpq (kL: 2 / 8, ki: 7, kj: 6)
Read Lpq (kL: 3 / 8, ki: 0, kj: 2)
Read Lpq (kL: 3 / 8, ki: 1, kj: 3)
Read Lpq (kL: 3 / 8, ki: 2, kj: 0)
Read Lpq (kL: 3 / 8, ki: 3, kj: 1)
Read Lpq (kL: 3 / 8, ki: 4, kj: 6)
Read Lpq (kL: 3 / 8, ki: 5, kj: 7)
Read Lpq (kL: 3 / 8, ki: 6, kj: 4)
Read Lpq (kL: 3 / 8, ki: 7, kj: 5)
Read Lpq (kL: 4 / 8, ki: 0, kj: 3)
Read Lpq (kL: 4 / 8, ki: 1, kj: 2)
Read Lpq (kL: 4 / 8, ki: 2, kj: 1)
Read Lpq (kL: 4 / 8, ki: 3, kj: 0)
Read Lpq (kL: 4 / 8, ki: 4, kj: 7)
Read Lpq (kL: 4 / 8, ki: 5, kj: 6)
Read Lpq (kL: 4 / 8, ki: 6, kj: 5)
Read Lpq (kL: 4 / 8, ki: 7, kj: 4)
Read Lpq (kL: 5 / 8, ki: 0, kj: 4)
Read Lpq (kL: 5 / 8, ki: 1, kj: 5)
Read Lpq (kL: 5 / 8, ki: 2, kj: 6)
Read Lpq (kL: 5 / 8, ki: 3, kj: 7)
Read Lpq (kL: 5 / 8, ki: 4, kj: 0)
Read Lpq (kL: 5 / 8, ki: 5, kj: 1)
Read Lpq (kL: 5 / 8, ki: 6, kj: 2)
Read Lpq (kL: 5 / 8, ki: 7, kj: 3)
Read Lpq (kL: 6 / 8, ki: 0, kj: 5)
Read Lpq (kL: 6 / 8, ki: 1, kj: 4)
Read Lpq (kL: 6 / 8, ki: 2, kj: 7)
Read Lpq (kL: 6 / 8, ki: 3, kj: 6)
Read Lpq (kL: 6 / 8, ki: 4, kj: 1)
Read Lpq (kL: 6 / 8, ki: 5, kj: 0)
Read Lpq (kL: 6 / 8, ki: 6, kj: 3)
Read Lpq (kL: 6 / 8, ki: 7, kj: 2)
Read Lpq (kL: 7 / 8, ki: 0, kj: 6)
Read Lpq (kL: 7 / 8, ki: 1, kj: 7)
Read Lpq (kL: 7 / 8, ki: 2, kj: 4)
Read Lpq (kL: 7 / 8, ki: 3, kj: 5)
Read Lpq (kL: 7 / 8, ki: 4, kj: 2)
Read Lpq (kL: 7 / 8, ki: 5, kj: 3)
Read Lpq (kL: 7 / 8, ki: 6, kj: 0)
Read Lpq (kL: 7 / 8, ki: 7, kj: 1)
Read Lpq (kL: 8 / 8, ki: 0, kj: 7)
Read Lpq (kL: 8 / 8, ki: 1, kj: 6)
Read Lpq (kL: 8 / 8, ki: 2, kj: 5)
Read Lpq (kL: 8 / 8, ki: 3, kj: 4)
Read Lpq (kL: 8 / 8, ki: 4, kj: 3)
Read Lpq (kL: 8 / 8, ki: 5, kj: 2)
Read Lpq (kL: 8 / 8, ki: 6, kj: 1)
Read Lpq (kL: 8 / 8, ki: 7, kj: 0)
  GW mo_energy @ k0 =
[-0.25890615 -0.15507735 -0.03612196 -0.03579699 -0.03579473 -0.03215836
 -0.03215745 -0.0208586  -0.02085517 -0.01517058 -0.01516578 -0.0357461
  0.07938037  0.31995907  0.31996214  0.37408928  0.37029753  0.37029933
  0.51609565  0.58634172  0.77052932  0.77052827  0.79876024  0.80033325
  0.85206839  0.85207163  1.18235502  1.1823643   1.22926927  1.34734722
  1.34734587  1.38558574  1.38559794  1.39451844  1.4091813   1.53346293
  1.55476586  1.5547626   1.65385863  1.7332963   1.73330274  2.04853468
  2.04863794  2.08860247  2.08855888  2.09833358  2.1430593   2.14306235
  2.30555852  2.36498916  2.43843883  2.41014738  2.50355134  2.50354679
  2.63798892  2.63798838  2.73287407  2.77374309  2.82985414  2.82984515
  3.10900232  3.10899264  3.28612189  3.4216131   3.47846616  3.47847096
  3.51118042  3.51118059  6.42295527  6.44183129 10.83895927 10.84476163
 10.84477162 10.93802068 10.93804058 11.18648429]
  GW mo_energy @ k1 =
[-0.20291102 -0.20290408 -0.03458379 -0.03458353 -0.03458205 -0.03458167
 -0.01749209 -0.01749179 -0.01748812 -0.0174876  -0.05677985 -0.05678269
  0.21829377  0.21829579  0.34421904  0.3442214   0.34422392  0.34422649
  0.5954863   0.59548833  0.75188046  0.75187961  0.8037984   0.80379809
  0.80379955  0.80380032  1.25141161  1.25141207  1.25141985  1.25142018
  1.32273236  1.32273277  1.45228685  1.45228835  1.48769667  1.48769644
  1.48769992  1.48769985  1.81290319  1.81290644  1.81291666  1.81292062
  1.90593436  1.90593488  2.24805813  2.24805763  2.24805346  2.24805326
  2.38662196  2.38662387  2.49663321  2.49663242  2.57243098  2.57243283
  2.57240928  2.57241006  2.74870009  2.74870023  2.89825903  2.89824913
  2.89824753  2.89823676  3.2438359   3.24382468  3.49762011  3.49765893
  3.49762264  3.49766065  6.42647642  6.4264702  10.84447871 10.84448441
 10.84447899 10.84448221 10.87318876 10.87319646]
  GW mo_energy @ k2 =
[-0.1577604  -0.13680779 -0.03335418 -0.03157921 -0.02631607 -0.02415511
 -0.02079468 -0.0201542  -0.01588241 -0.01375897 -0.03906759 -0.03368319
  0.10599347  0.15157474  0.18970118  0.24391093  0.27664722  0.32313965
  0.62847374  0.6454293   0.69666787  0.76214705  0.81803023  0.83858992
  0.91136387  0.94943458  0.95257633  1.16588881  1.25777244  1.30063753
  1.37266289  1.46594447  1.47665435  1.49599319  1.54852846  1.55453473
  1.63189666  1.66049971  1.68935555  1.79340337  1.83146457  1.89614319
  2.04382651  2.07145498  2.1091393   2.12274773  2.25625046  2.26925415
  2.29013039  2.34997707  2.37179151  2.42564324  2.62807635  2.71199677
  2.7314283   2.79860626  2.85810698  2.90468919  3.00013955  3.02288061
  3.10261846  3.15745657  3.24774911  3.27777735  3.34734387  3.40896325
  3.41357154  3.45116012  6.4357482   6.45333182 10.04742797 10.66767527
 10.71828642 10.94201116 11.23444043 11.27015281]
  GW mo_energy @ k3 =
[-0.14324085 -0.14323516 -0.03385773 -0.0338574  -0.02587471 -0.02587477
 -0.01944851 -0.01944867 -0.01546697 -0.01546634 -0.0391885  -0.03918907
  0.09926607  0.0992678   0.28017547  0.28017962  0.28798551  0.28798792
  0.60524443  0.6052464   0.72685742  0.72685978  0.82544309  0.82544557
  0.88928613  0.88928723  1.06972305  1.06972465  1.33071674  1.33071184
  1.3859364   1.38593676  1.47080534  1.47080596  1.51669996  1.51669913
  1.71035519  1.71035686  1.81593027  1.81588412  1.95211268  1.95211106
  2.03593292  2.03593278  2.1832297   2.18322925  2.18924163  2.18924746
  2.28140381  2.28140521  2.36980701  2.36975695  2.74655187  2.74654774
  2.81972366  2.81972597  2.84334372  2.84334347  3.03947143  3.03946546
  3.06551433  3.06551336  3.15698166  3.15698585  3.34225837  3.34225907
  3.4280093   3.42800507  6.44013523  6.44012113 10.23100206 10.23100803
 10.92009215 10.92009997 11.03245867 11.03244479]
  GW mo_energy @ k4 =
[-0.15776344 -0.13680168 -0.03335696 -0.03157556 -0.0263227  -0.02414845
 -0.02079332 -0.02016053 -0.01588214 -0.01375595 -0.03905742 -0.03369631
  0.10599605  0.1515763   0.18970528  0.24391396  0.27664326  0.32314266
  0.62846281  0.64542307  0.69666782  0.762145    0.81803178  0.83859686
  0.91135942  0.94944517  0.95257676  1.16588695  1.25777669  1.30063531
  1.3726673   1.46594211  1.47665825  1.49599542  1.54853101  1.55454186
  1.63185013  1.66050135  1.689353    1.7934045   1.83148875  1.89614155
  2.04383709  2.07148186  2.10914541  2.12274172  2.2562551   2.26925591
  2.29012988  2.34997383  2.37178688  2.42565259  2.62807747  2.71199636
  2.73143175  2.79860684  2.85810653  2.90469517  3.00013562  3.02288333
  3.1026214   3.15745826  3.24776505  3.27775919  3.34735159  3.40896838
  3.41356889  3.45116231  6.43574929  6.4533304  10.04744148 10.66768228
 10.71827363 10.94200303 11.23443929 11.27015726]
  GW mo_energy @ k5 =
[-0.1432362  -0.14323091 -0.03386147 -0.03386148 -0.02587168 -0.02587125
 -0.0194493  -0.01944898 -0.01546632 -0.01546573 -0.03919242 -0.03919254
  0.09926848  0.0992706   0.28017872  0.28018302  0.28798495  0.28798735
  0.60524075  0.60524199  0.72685188  0.72685421  0.82544647  0.82544891
  0.88928646  0.88928738  1.06972345  1.0697243   1.33074506  1.33077474
  1.38594057  1.38594088  1.47080411  1.47080486  1.51669913  1.5166982
  1.71034257  1.71034452  1.81592619  1.81588049  1.95211949  1.95211829
  2.0359332   2.03593261  2.1832322   2.18323208  2.18922986  2.18923466
  2.28139899  2.2814      2.36981405  2.36976453  2.74655221  2.74654822
  2.81972048  2.8197203   2.84334251  2.84334261  3.03946415  3.0394573
  3.0655217   3.06552102  3.15698421  3.15698797  3.34226082  3.34226165
  3.42801366  3.42800886  6.44013247  6.44011909 10.2310102  10.23101422
 10.92008482 10.92008275 11.03245456 11.03244349]
  GW mo_energy @ k6 =
[-0.15776333 -0.13680172 -0.03335697 -0.03157567 -0.02632267 -0.02414841
 -0.02079336 -0.02016049 -0.01588214 -0.01375599 -0.03905739 -0.03369632
  0.10599596  0.15157637  0.18970536  0.24391376  0.27664302  0.32314259
  0.62846313  0.64542326  0.6966677   0.76214501  0.81803163  0.83859661
  0.91135982  0.9494445   0.95257667  1.16588747  1.25777643  1.30063584
  1.3726669   1.46594161  1.47665852  1.49599566  1.54853085  1.55454144
  1.63185015  1.66050143  1.68935336  1.79340458  1.83148897  1.89614186
  2.04383695  2.0714822   2.10914523  2.12274172  2.25625569  2.26925603
  2.29012999  2.34997334  2.37178682  2.42565231  2.62807736  2.71199639
  2.73143228  2.79860699  2.85810642  2.9046948   3.00013555  3.02288332
  3.10262157  3.15745794  3.2477648   3.27775973  3.34735115  3.40896834
  3.41356898  3.45116175  6.43574963  6.45332916 10.04744167 10.66768242
 10.71827308 10.94200428 11.23443947 11.27015711]
  GW mo_energy @ k7 =
[-0.14323624 -0.14323077 -0.0338616  -0.03386129 -0.02587171 -0.02587141
 -0.01944929 -0.01944893 -0.01546631 -0.01546574 -0.03919229 -0.03919264
  0.0992685   0.09927042  0.2801785   0.28018295  0.28798496  0.28798741
  0.60524064  0.60524206  0.72685194  0.72685431  0.82544647  0.82544902
  0.88928629  0.88928733  1.06972352  1.0697243   1.33074115  1.33077618
  1.38594088  1.3859407   1.47080491  1.47080485  1.51669883  1.51669806
  1.71034348  1.7103449   1.81592916  1.81587796  1.95211953  1.95211819
  2.03593228  2.03593348  2.18323185  2.18323245  2.1892297   2.18923494
  2.28139901  2.28140061  2.36981768  2.36975954  2.7465523   2.74654826
  2.81971999  2.81972113  2.8433423   2.84334211  3.03946423  3.03945741
  3.06552173  3.06552104  3.15698393  3.15698857  3.34226031  3.34226159
  3.42801177  3.42801025  6.44013319  6.44011872 10.23101065 10.23101316
 10.9200802  10.92008685 11.03244238 11.03245617]

WARN: GW QP energies may not be sorted from min to max

    CPU time for GW  34843.88 sec, wall time   1471.60 sec
DFT HOMO energy: 13.164945210840322
DFT LUMO energy: 10.140298938520171
DFT Band gap at Gamma point [eV]: 3.0246462723201515
GW HOMO energy: 14.043478664282318
GW LUMO energy: 10.179343324578285
GW Band gap at Gamma point [eV]: 3.864135339704032
