ITEM: TIMESTEP
0
ITEM: NUMBER OF ATOMS
1539
ITEM: BOX BOUNDS xy xz yz pp pp pp
0.0000000000000000e+00 4.4393861000000001e+01 0.0000000000000000e+00
0.0000000000000000e+00 4.4393861000000001e+01 0.0000000000000000e+00
0.0000000000000000e+00 5.0000000000000000e+01 0.0000000000000000e+00
ITEM: ATOMS id type x y z vx vy vz 
1 1 0 0 5.20361 0 0 0 
2 1 0 0 12 0 0 0 
3 1 1.84974 0.92487 2.93814 0 0 0 
4 1 1.84974 0.92487 9.73454 0 0 0 
5 1 0.92487 1.84974 0.67268 0 0 0 
6 1 0.92487 1.84974 7.46907 0 0 0 
7 1 2.77462 0 5.20361 0 0 0 
8 1 2.77462 0 12 0 0 0 
9 1 4.62436 0.92487 2.93814 0 0 0 
10 1 4.62436 0.92487 9.73454 0 0 0 
11 1 3.69949 1.84974 0.67268 0 0 0 
12 1 3.69949 1.84974 7.46907 0 0 0 
13 1 5.54923 0 5.20361 0 0 0 
14 1 5.54923 0 12 0 0 0 
15 1 7.39898 0.92487 2.93814 0 0 0 
16 1 7.39898 0.92487 9.73454 0 0 0 
17 1 6.4741 1.84974 0.67268 0 0 0 
18 1 6.4741 1.84974 7.46907 0 0 0 
19 1 8.32385 0 5.20361 0 0 0 
20 1 8.32385 0 12 0 0 0 
21 1 10.1736 0.92487 2.93814 0 0 0 
22 1 10.1736 0.92487 9.73454 0 0 0 
23 1 9.24872 1.84974 0.67268 0 0 0 
24 1 9.24872 1.84974 7.46907 0 0 0 
25 1 11.0985 0 5.20361 0 0 0 
26 1 11.0985 0 12 0 0 0 
27 1 12.9482 0.92487 2.93814 0 0 0 
28 1 12.9482 0.92487 9.73454 0 0 0 
29 1 12.0233 1.84974 0.67268 0 0 0 
30 1 12.0233 1.84974 7.46907 0 0 0 
31 1 13.8731 0 5.20361 0 0 0 
32 1 13.8731 0 12 0 0 0 
33 1 15.7228 0.92487 2.93814 0 0 0 
34 1 15.7228 0.92487 9.73454 0 0 0 
35 1 14.7979 1.84974 0.67268 0 0 0 
36 1 14.7979 1.84974 7.46907 0 0 0 
37 1 16.6477 0 5.20361 0 0 0 
38 1 16.6477 0 12 0 0 0 
39 1 18.4974 0.92487 2.93814 0 0 0 
40 1 18.4974 0.92487 9.73454 0 0 0 
41 1 17.5726 1.84974 0.67268 0 0 0 
42 1 17.5726 1.84974 7.46907 0 0 0 
43 1 19.4223 0 5.20361 0 0 0 
44 1 19.4223 0 12 0 0 0 
45 1 21.2721 0.92487 2.93814 0 0 0 
46 1 21.2721 0.92487 9.73454 0 0 0 
47 1 20.3472 1.84974 0.67268 0 0 0 
48 1 20.3472 1.84974 7.46907 0 0 0 
49 1 22.1969 0 5.20361 0 0 0 
50 1 22.1969 0 12 0 0 0 
51 1 24.0467 0.92487 2.93814 0 0 0 
52 1 24.0467 0.92487 9.73454 0 0 0 
53 1 23.1218 1.84974 0.67268 0 0 0 
54 1 23.1218 1.84974 7.46907 0 0 0 
55 1 24.9715 0 5.20361 0 0 0 
56 1 24.9715 0 12 0 0 0 
57 1 26.8213 0.92487 2.93814 0 0 0 
58 1 26.8213 0.92487 9.73454 0 0 0 
59 1 25.8964 1.84974 0.67268 0 0 0 
60 1 25.8964 1.84974 7.46907 0 0 0 
61 1 27.7462 0 5.20361 0 0 0 
62 1 27.7462 0 12 0 0 0 
63 1 29.5959 0.92487 2.93814 0 0 0 
64 1 29.5959 0.92487 9.73454 0 0 0 
65 1 28.671 1.84974 0.67268 0 0 0 
66 1 28.671 1.84974 7.46907 0 0 0 
67 1 30.5208 0 5.20361 0 0 0 
68 1 30.5208 0 12 0 0 0 
69 1 32.3705 0.92487 2.93814 0 0 0 
70 1 32.3705 0.92487 9.73454 0 0 0 
71 1 31.4457 1.84974 0.67268 0 0 0 
72 1 31.4457 1.84974 7.46907 0 0 0 
73 1 33.2954 0 5.20361 0 0 0 
74 1 33.2954 0 12 0 0 0 
75 1 35.1451 0.92487 2.93814 0 0 0 
76 1 35.1451 0.92487 9.73454 0 0 0 
77 1 34.2203 1.84974 0.67268 0 0 0 
78 1 34.2203 1.84974 7.46907 0 0 0 
79 1 36.07 0 5.20361 0 0 0 
80 1 36.07 0 12 0 0 0 
81 1 37.9198 0.92487 2.93814 0 0 0 
82 1 37.9198 0.92487 9.73454 0 0 0 
83 1 36.9949 1.84974 0.67268 0 0 0 
84 1 36.9949 1.84974 7.46907 0 0 0 
85 1 38.8446 0 5.20361 0 0 0 
86 1 38.8446 0 12 0 0 0 
87 1 40.6944 0.92487 2.93814 0 0 0 
88 1 40.6944 0.92487 9.73454 0 0 0 
89 1 39.7695 1.84974 0.67268 0 0 0 
90 1 39.7695 1.84974 7.46907 0 0 0 
91 1 41.6192 0 5.20361 0 0 0 
92 1 41.6192 0 12 0 0 0 
93 1 43.469 0.92487 2.93814 0 0 0 
94 1 43.469 0.92487 9.73454 0 0 0 
95 1 42.5441 1.84974 0.67268 0 0 0 
96 1 42.5441 1.84974 7.46907 0 0 0 
97 1 0 2.77462 5.20361 0 0 0 
98 1 0 2.77462 12 0 0 0 
99 1 1.84974 3.69949 2.93814 0 0 0 
100 1 1.84974 3.69949 9.73454 0 0 0 
101 1 0.92487 4.62436 0.67268 0 0 0 
102 1 0.92487 4.62436 7.46907 0 0 0 
103 1 2.77462 2.77462 5.20361 0 0 0 
104 1 2.77462 2.77462 12 0 0 0 
105 1 4.62436 3.69949 2.93814 0 0 0 
106 1 4.62436 3.69949 9.73454 0 0 0 
107 1 3.69949 4.62436 0.67268 0 0 0 
108 1 3.69949 4.62436 7.46907 0 0 0 
109 1 5.54923 2.77462 5.20361 0 0 0 
110 1 5.54923 2.77462 12 0 0 0 
111 1 7.39898 3.69949 2.93814 0 0 0 
112 1 7.39898 3.69949 9.73454 0 0 0 
113 1 6.4741 4.62436 0.67268 0 0 0 
114 1 6.4741 4.62436 7.46907 0 0 0 
115 1 8.32385 2.77462 5.20361 0 0 0 
116 1 8.32385 2.77462 12 0 0 0 
117 1 10.1736 3.69949 2.93814 0 0 0 
118 1 10.1736 3.69949 9.73454 0 0 0 
119 1 9.24872 4.62436 0.67268 0 0 0 
120 1 9.24872 4.62436 7.46907 0 0 0 
121 1 11.0985 2.77462 5.20361 0 0 0 
122 1 11.0985 2.77462 12 0 0 0 
123 1 12.9482 3.69949 2.93814 0 0 0 
124 1 12.9482 3.69949 9.73454 0 0 0 
125 1 12.0233 4.62436 0.67268 0 0 0 
126 1 12.0233 4.62436 7.46907 0 0 0 
127 1 13.8731 2.77462 5.20361 0 0 0 
128 1 13.8731 2.77462 12 0 0 0 
129 1 15.7228 3.69949 2.93814 0 0 0 
130 1 15.7228 3.69949 9.73454 0 0 0 
131 1 14.7979 4.62436 0.67268 0 0 0 
132 1 14.7979 4.62436 7.46907 0 0 0 
133 1 16.6477 2.77462 5.20361 0 0 0 
134 1 16.6477 2.77462 12 0 0 0 
135 1 18.4974 3.69949 2.93814 0 0 0 
136 1 18.4974 3.69949 9.73454 0 0 0 
137 1 17.5726 4.62436 0.67268 0 0 0 
138 1 17.5726 4.62436 7.46907 0 0 0 
139 1 19.4223 2.77462 5.20361 0 0 0 
140 1 19.4223 2.77462 12 0 0 0 
141 1 21.2721 3.69949 2.93814 0 0 0 
142 1 21.2721 3.69949 9.73454 0 0 0 
143 1 20.3472 4.62436 0.67268 0 0 0 
144 1 20.3472 4.62436 7.46907 0 0 0 
145 1 22.1969 2.77462 5.20361 0 0 0 
146 1 22.1969 2.77462 12 0 0 0 
147 1 24.0467 3.69949 2.93814 0 0 0 
148 1 24.0467 3.69949 9.73454 0 0 0 
149 1 23.1218 4.62436 0.67268 0 0 0 
150 1 23.1218 4.62436 7.46907 0 0 0 
151 1 24.9715 2.77462 5.20361 0 0 0 
152 1 24.9715 2.77462 12 0 0 0 
153 1 26.8213 3.69949 2.93814 0 0 0 
154 1 26.8213 3.69949 9.73454 0 0 0 
155 1 25.8964 4.62436 0.67268 0 0 0 
156 1 25.8964 4.62436 7.46907 0 0 0 
157 1 27.7462 2.77462 5.20361 0 0 0 
158 1 27.7462 2.77462 12 0 0 0 
159 1 29.5959 3.69949 2.93814 0 0 0 
160 1 29.5959 3.69949 9.73454 0 0 0 
161 1 28.671 4.62436 0.67268 0 0 0 
162 1 28.671 4.62436 7.46907 0 0 0 
163 1 30.5208 2.77462 5.20361 0 0 0 
164 1 30.5208 2.77462 12 0 0 0 
165 1 32.3705 3.69949 2.93814 0 0 0 
166 1 32.3705 3.69949 9.73454 0 0 0 
167 1 31.4457 4.62436 0.67268 0 0 0 
168 1 31.4457 4.62436 7.46907 0 0 0 
169 1 33.2954 2.77462 5.20361 0 0 0 
170 1 33.2954 2.77462 12 0 0 0 
171 1 35.1451 3.69949 2.93814 0 0 0 
172 1 35.1451 3.69949 9.73454 0 0 0 
173 1 34.2203 4.62436 0.67268 0 0 0 
174 1 34.2203 4.62436 7.46907 0 0 0 
175 1 36.07 2.77462 5.20361 0 0 0 
176 1 36.07 2.77462 12 0 0 0 
177 1 37.9198 3.69949 2.93814 0 0 0 
178 1 37.9198 3.69949 9.73454 0 0 0 
179 1 36.9949 4.62436 0.67268 0 0 0 
180 1 36.9949 4.62436 7.46907 0 0 0 
181 1 38.8446 2.77462 5.20361 0 0 0 
182 1 38.8446 2.77462 12 0 0 0 
183 1 40.6944 3.69949 2.93814 0 0 0 
184 1 40.6944 3.69949 9.73454 0 0 0 
185 1 39.7695 4.62436 0.67268 0 0 0 
186 1 39.7695 4.62436 7.46907 0 0 0 
187 1 41.6192 2.77462 5.20361 0 0 0 
188 1 41.6192 2.77462 12 0 0 0 
189 1 43.469 3.69949 2.93814 0 0 0 
190 1 43.469 3.69949 9.73454 0 0 0 
191 1 42.5441 4.62436 0.67268 0 0 0 
192 1 42.5441 4.62436 7.46907 0 0 0 
193 1 0 5.54923 5.20361 0 0 0 
194 1 0 5.54923 12 0 0 0 
195 1 1.84974 6.4741 2.93814 0 0 0 
196 1 1.84974 6.4741 9.73454 0 0 0 
197 1 0.92487 7.39898 0.67268 0 0 0 
198 1 0.92487 7.39898 7.46907 0 0 0 
199 1 2.77462 5.54923 5.20361 0 0 0 
200 1 2.77462 5.54923 12 0 0 0 
201 1 4.62436 6.4741 2.93814 0 0 0 
202 1 4.62436 6.4741 9.73454 0 0 0 
203 1 3.69949 7.39898 0.67268 0 0 0 
204 1 3.69949 7.39898 7.46907 0 0 0 
205 1 5.54923 5.54923 5.20361 0 0 0 
206 1 5.54923 5.54923 12 0 0 0 
207 1 7.39898 6.4741 2.93814 0 0 0 
208 1 7.39898 6.4741 9.73454 0 0 0 
209 1 6.4741 7.39898 0.67268 0 0 0 
210 1 6.4741 7.39898 7.46907 0 0 0 
211 1 8.32385 5.54923 5.20361 0 0 0 
212 1 8.32385 5.54923 12 0 0 0 
213 1 10.1736 6.4741 2.93814 0 0 0 
214 1 10.1736 6.4741 9.73454 0 0 0 
215 1 9.24872 7.39898 0.67268 0 0 0 
216 1 9.24872 7.39898 7.46907 0 0 0 
217 1 11.0985 5.54923 5.20361 0 0 0 
218 1 11.0985 5.54923 12 0 0 0 
219 1 12.9482 6.4741 2.93814 0 0 0 
220 1 12.9482 6.4741 9.73454 0 0 0 
221 1 12.0233 7.39898 0.67268 0 0 0 
222 1 12.0233 7.39898 7.46907 0 0 0 
223 1 13.8731 5.54923 5.20361 0 0 0 
224 1 13.8731 5.54923 12 0 0 0 
225 1 15.7228 6.4741 2.93814 0 0 0 
226 1 15.7228 6.4741 9.73454 0 0 0 
227 1 14.7979 7.39898 0.67268 0 0 0 
228 1 14.7979 7.39898 7.46907 0 0 0 
229 1 16.6477 5.54923 5.20361 0 0 0 
230 1 16.6477 5.54923 12 0 0 0 
231 1 18.4974 6.4741 2.93814 0 0 0 
232 1 18.4974 6.4741 9.73454 0 0 0 
233 1 17.5726 7.39898 0.67268 0 0 0 
234 1 17.5726 7.39898 7.46907 0 0 0 
235 1 19.4223 5.54923 5.20361 0 0 0 
236 1 19.4223 5.54923 12 0 0 0 
237 1 21.2721 6.4741 2.93814 0 0 0 
238 1 21.2721 6.4741 9.73454 0 0 0 
239 1 20.3472 7.39898 0.67268 0 0 0 
240 1 20.3472 7.39898 7.46907 0 0 0 
241 1 22.1969 5.54923 5.20361 0 0 0 
242 1 22.1969 5.54923 12 0 0 0 
243 1 24.0467 6.4741 2.93814 0 0 0 
244 1 24.0467 6.4741 9.73454 0 0 0 
245 1 23.1218 7.39898 0.67268 0 0 0 
246 1 23.1218 7.39898 7.46907 0 0 0 
247 1 24.9715 5.54923 5.20361 0 0 0 
248 1 24.9715 5.54923 12 0 0 0 
249 1 26.8213 6.4741 2.93814 0 0 0 
250 1 26.8213 6.4741 9.73454 0 0 0 
251 1 25.8964 7.39898 0.67268 0 0 0 
252 1 25.8964 7.39898 7.46907 0 0 0 
253 1 27.7462 5.54923 5.20361 0 0 0 
254 1 27.7462 5.54923 12 0 0 0 
255 1 29.5959 6.4741 2.93814 0 0 0 
256 1 29.5959 6.4741 9.73454 0 0 0 
257 1 28.671 7.39898 0.67268 0 0 0 
258 1 28.671 7.39898 7.46907 0 0 0 
259 1 30.5208 5.54923 5.20361 0 0 0 
260 1 30.5208 5.54923 12 0 0 0 
261 1 32.3705 6.4741 2.93814 0 0 0 
262 1 32.3705 6.4741 9.73454 0 0 0 
263 1 31.4457 7.39898 0.67268 0 0 0 
264 1 31.4457 7.39898 7.46907 0 0 0 
265 1 33.2954 5.54923 5.20361 0 0 0 
266 1 33.2954 5.54923 12 0 0 0 
267 1 35.1451 6.4741 2.93814 0 0 0 
268 1 35.1451 6.4741 9.73454 0 0 0 
269 1 34.2203 7.39898 0.67268 0 0 0 
270 1 34.2203 7.39898 7.46907 0 0 0 
271 1 36.07 5.54923 5.20361 0 0 0 
272 1 36.07 5.54923 12 0 0 0 
273 1 37.9198 6.4741 2.93814 0 0 0 
274 1 37.9198 6.4741 9.73454 0 0 0 
275 1 36.9949 7.39898 0.67268 0 0 0 
276 1 36.9949 7.39898 7.46907 0 0 0 
277 1 38.8446 5.54923 5.20361 0 0 0 
278 1 38.8446 5.54923 12 0 0 0 
279 1 40.6944 6.4741 2.93814 0 0 0 
280 1 40.6944 6.4741 9.73454 0 0 0 
281 1 39.7695 7.39898 0.67268 0 0 0 
282 1 39.7695 7.39898 7.46907 0 0 0 
283 1 41.6192 5.54923 5.20361 0 0 0 
284 1 41.6192 5.54923 12 0 0 0 
285 1 43.469 6.4741 2.93814 0 0 0 
286 1 43.469 6.4741 9.73454 0 0 0 
287 1 42.5441 7.39898 0.67268 0 0 0 
288 1 42.5441 7.39898 7.46907 0 0 0 
289 1 0 8.32385 5.20361 0 0 0 
290 1 0 8.32385 12 0 0 0 
291 1 1.84974 9.24872 2.93814 0 0 0 
292 1 1.84974 9.24872 9.73454 0 0 0 
293 1 0.92487 10.1736 0.67268 0 0 0 
294 1 0.92487 10.1736 7.46907 0 0 0 
295 1 2.77462 8.32385 5.20361 0 0 0 
296 1 2.77462 8.32385 12 0 0 0 
297 1 4.62436 9.24872 2.93814 0 0 0 
298 1 4.62436 9.24872 9.73454 0 0 0 
299 1 3.69949 10.1736 0.67268 0 0 0 
300 1 3.69949 10.1736 7.46907 0 0 0 
301 1 5.54923 8.32385 5.20361 0 0 0 
302 1 5.54923 8.32385 12 0 0 0 
303 1 7.39898 9.24872 2.93814 0 0 0 
304 1 7.39898 9.24872 9.73454 0 0 0 
305 1 6.4741 10.1736 0.67268 0 0 0 
306 1 6.4741 10.1736 7.46907 0 0 0 
307 1 8.32385 8.32385 5.20361 0 0 0 
308 1 8.32385 8.32385 12 0 0 0 
309 1 10.1736 9.24872 2.93814 0 0 0 
310 1 10.1736 9.24872 9.73454 0 0 0 
311 1 9.24872 10.1736 0.67268 0 0 0 
312 1 9.24872 10.1736 7.46907 0 0 0 
313 1 11.0985 8.32385 5.20361 0 0 0 
314 1 11.0985 8.32385 12 0 0 0 
315 1 12.9482 9.24872 2.93814 0 0 0 
316 1 12.9482 9.24872 9.73454 0 0 0 
317 1 12.0233 10.1736 0.67268 0 0 0 
318 1 12.0233 10.1736 7.46907 0 0 0 
319 1 13.8731 8.32385 5.20361 0 0 0 
320 1 13.8731 8.32385 12 0 0 0 
321 1 15.7228 9.24872 2.93814 0 0 0 
322 1 15.7228 9.24872 9.73454 0 0 0 
323 1 14.7979 10.1736 0.67268 0 0 0 
324 1 14.7979 10.1736 7.46907 0 0 0 
325 1 16.6477 8.32385 5.20361 0 0 0 
326 1 16.6477 8.32385 12 0 0 0 
327 1 18.4974 9.24872 2.93814 0 0 0 
328 1 18.4974 9.24872 9.73454 0 0 0 
329 1 17.5726 10.1736 0.67268 0 0 0 
330 1 17.5726 10.1736 7.46907 0 0 0 
331 1 19.4223 8.32385 5.20361 0 0 0 
332 1 19.4223 8.32385 12 0 0 0 
333 1 21.2721 9.24872 2.93814 0 0 0 
334 1 21.2721 9.24872 9.73454 0 0 0 
335 1 20.3472 10.1736 0.67268 0 0 0 
336 1 20.3472 10.1736 7.46907 0 0 0 
337 1 22.1969 8.32385 5.20361 0 0 0 
338 1 22.1969 8.32385 12 0 0 0 
339 1 24.0467 9.24872 2.93814 0 0 0 
340 1 24.0467 9.24872 9.73454 0 0 0 
341 1 23.1218 10.1736 0.67268 0 0 0 
342 1 23.1218 10.1736 7.46907 0 0 0 
343 1 24.9715 8.32385 5.20361 0 0 0 
344 1 24.9715 8.32385 12 0 0 0 
345 1 26.8213 9.24872 2.93814 0 0 0 
346 1 26.8213 9.24872 9.73454 0 0 0 
347 1 25.8964 10.1736 0.67268 0 0 0 
348 1 25.8964 10.1736 7.46907 0 0 0 
349 1 27.7462 8.32385 5.20361 0 0 0 
350 1 27.7462 8.32385 12 0 0 0 
351 1 29.5959 9.24872 2.93814 0 0 0 
352 1 29.5959 9.24872 9.73454 0 0 0 
353 1 28.671 10.1736 0.67268 0 0 0 
354 1 28.671 10.1736 7.46907 0 0 0 
355 1 30.5208 8.32385 5.20361 0 0 0 
356 1 30.5208 8.32385 12 0 0 0 
357 1 32.3705 9.24872 2.93814 0 0 0 
358 1 32.3705 9.24872 9.73454 0 0 0 
359 1 31.4457 10.1736 0.67268 0 0 0 
360 1 31.4457 10.1736 7.46907 0 0 0 
361 1 33.2954 8.32385 5.20361 0 0 0 
362 1 33.2954 8.32385 12 0 0 0 
363 1 35.1451 9.24872 2.93814 0 0 0 
364 1 35.1451 9.24872 9.73454 0 0 0 
365 1 34.2203 10.1736 0.67268 0 0 0 
366 1 34.2203 10.1736 7.46907 0 0 0 
367 1 36.07 8.32385 5.20361 0 0 0 
368 1 36.07 8.32385 12 0 0 0 
369 1 37.9198 9.24872 2.93814 0 0 0 
370 1 37.9198 9.24872 9.73454 0 0 0 
371 1 36.9949 10.1736 0.67268 0 0 0 
372 1 36.9949 10.1736 7.46907 0 0 0 
373 1 38.8446 8.32385 5.20361 0 0 0 
374 1 38.8446 8.32385 12 0 0 0 
375 1 40.6944 9.24872 2.93814 0 0 0 
376 1 40.6944 9.24872 9.73454 0 0 0 
377 1 39.7695 10.1736 0.67268 0 0 0 
378 1 39.7695 10.1736 7.46907 0 0 0 
379 1 41.6192 8.32385 5.20361 0 0 0 
380 1 41.6192 8.32385 12 0 0 0 
381 1 43.469 9.24872 2.93814 0 0 0 
382 1 43.469 9.24872 9.73454 0 0 0 
383 1 42.5441 10.1736 0.67268 0 0 0 
384 1 42.5441 10.1736 7.46907 0 0 0 
385 1 0 11.0985 5.20361 0 0 0 
386 1 0 11.0985 12 0 0 0 
387 1 1.84974 12.0233 2.93814 0 0 0 
388 1 1.84974 12.0233 9.73454 0 0 0 
389 1 0.92487 12.9482 0.67268 0 0 0 
390 1 0.92487 12.9482 7.46907 0 0 0 
391 1 2.77462 11.0985 5.20361 0 0 0 
392 1 2.77462 11.0985 12 0 0 0 
393 1 4.62436 12.0233 2.93814 0 0 0 
394 1 4.62436 12.0233 9.73454 0 0 0 
395 1 3.69949 12.9482 0.67268 0 0 0 
396 1 3.69949 12.9482 7.46907 0 0 0 
397 1 5.54923 11.0985 5.20361 0 0 0 
398 1 5.54923 11.0985 12 0 0 0 
399 1 7.39898 12.0233 2.93814 0 0 0 
400 1 7.39898 12.0233 9.73454 0 0 0 
401 1 6.4741 12.9482 0.67268 0 0 0 
402 1 6.4741 12.9482 7.46907 0 0 0 
403 1 8.32385 11.0985 5.20361 0 0 0 
404 1 8.32385 11.0985 12 0 0 0 
405 1 10.1736 12.0233 2.93814 0 0 0 
406 1 10.1736 12.0233 9.73454 0 0 0 
407 1 9.24872 12.9482 0.67268 0 0 0 
408 1 9.24872 12.9482 7.46907 0 0 0 
409 1 11.0985 11.0985 5.20361 0 0 0 
410 1 11.0985 11.0985 12 0 0 0 
411 1 12.9482 12.0233 2.93814 0 0 0 
412 1 12.9482 12.0233 9.73454 0 0 0 
413 1 12.0233 12.9482 0.67268 0 0 0 
414 1 12.0233 12.9482 7.46907 0 0 0 
415 1 13.8731 11.0985 5.20361 0 0 0 
416 1 13.8731 11.0985 12 0 0 0 
417 1 15.7228 12.0233 2.93814 0 0 0 
418 1 15.7228 12.0233 9.73454 0 0 0 
419 1 14.7979 12.9482 0.67268 0 0 0 
420 1 14.7979 12.9482 7.46907 0 0 0 
421 1 16.6477 11.0985 5.20361 0 0 0 
422 1 16.6477 11.0985 12 0 0 0 
423 1 18.4974 12.0233 2.93814 0 0 0 
424 1 18.4974 12.0233 9.73454 0 0 0 
425 1 17.5726 12.9482 0.67268 0 0 0 
426 1 17.5726 12.9482 7.46907 0 0 0 
427 1 19.4223 11.0985 5.20361 0 0 0 
428 1 19.4223 11.0985 12 0 0 0 
429 1 21.2721 12.0233 2.93814 0 0 0 
430 1 21.2721 12.0233 9.73454 0 0 0 
431 1 20.3472 12.9482 0.67268 0 0 0 
432 1 20.3472 12.9482 7.46907 0 0 0 
433 1 22.1969 11.0985 5.20361 0 0 0 
434 1 22.1969 11.0985 12 0 0 0 
435 1 24.0467 12.0233 2.93814 0 0 0 
436 1 24.0467 12.0233 9.73454 0 0 0 
437 1 23.1218 12.9482 0.67268 0 0 0 
438 1 23.1218 12.9482 7.46907 0 0 0 
439 1 24.9715 11.0985 5.20361 0 0 0 
440 1 24.9715 11.0985 12 0 0 0 
441 1 26.8213 12.0233 2.93814 0 0 0 
442 1 26.8213 12.0233 9.73454 0 0 0 
443 1 25.8964 12.9482 0.67268 0 0 0 
444 1 25.8964 12.9482 7.46907 0 0 0 
445 1 27.7462 11.0985 5.20361 0 0 0 
446 1 27.7462 11.0985 12 0 0 0 
447 1 29.5959 12.0233 2.93814 0 0 0 
448 1 29.5959 12.0233 9.73454 0 0 0 
449 1 28.671 12.9482 0.67268 0 0 0 
450 1 28.671 12.9482 7.46907 0 0 0 
451 1 30.5208 11.0985 5.20361 0 0 0 
452 1 30.5208 11.0985 12 0 0 0 
453 1 32.3705 12.0233 2.93814 0 0 0 
454 1 32.3705 12.0233 9.73454 0 0 0 
455 1 31.4457 12.9482 0.67268 0 0 0 
456 1 31.4457 12.9482 7.46907 0 0 0 
457 1 33.2954 11.0985 5.20361 0 0 0 
458 1 33.2954 11.0985 12 0 0 0 
459 1 35.1451 12.0233 2.93814 0 0 0 
460 1 35.1451 12.0233 9.73454 0 0 0 
461 1 34.2203 12.9482 0.67268 0 0 0 
462 1 34.2203 12.9482 7.46907 0 0 0 
463 1 36.07 11.0985 5.20361 0 0 0 
464 1 36.07 11.0985 12 0 0 0 
465 1 37.9198 12.0233 2.93814 0 0 0 
466 1 37.9198 12.0233 9.73454 0 0 0 
467 1 36.9949 12.9482 0.67268 0 0 0 
468 1 36.9949 12.9482 7.46907 0 0 0 
469 1 38.8446 11.0985 5.20361 0 0 0 
470 1 38.8446 11.0985 12 0 0 0 
471 1 40.6944 12.0233 2.93814 0 0 0 
472 1 40.6944 12.0233 9.73454 0 0 0 
473 1 39.7695 12.9482 0.67268 0 0 0 
474 1 39.7695 12.9482 7.46907 0 0 0 
475 1 41.6192 11.0985 5.20361 0 0 0 
476 1 41.6192 11.0985 12 0 0 0 
477 1 43.469 12.0233 2.93814 0 0 0 
478 1 43.469 12.0233 9.73454 0 0 0 
479 1 42.5441 12.9482 0.67268 0 0 0 
480 1 42.5441 12.9482 7.46907 0 0 0 
481 1 0 13.8731 5.20361 0 0 0 
482 1 0 13.8731 12 0 0 0 
483 1 1.84974 14.7979 2.93814 0 0 0 
484 1 1.84974 14.7979 9.73454 0 0 0 
485 1 0.92487 15.7228 0.67268 0 0 0 
486 1 0.92487 15.7228 7.46907 0 0 0 
487 1 2.77462 13.8731 5.20361 0 0 0 
488 1 2.77462 13.8731 12 0 0 0 
489 1 4.62436 14.7979 2.93814 0 0 0 
490 1 4.62436 14.7979 9.73454 0 0 0 
491 1 3.69949 15.7228 0.67268 0 0 0 
492 1 3.69949 15.7228 7.46907 0 0 0 
493 1 5.54923 13.8731 5.20361 0 0 0 
494 1 5.54923 13.8731 12 0 0 0 
495 1 7.39898 14.7979 2.93814 0 0 0 
496 1 7.39898 14.7979 9.73454 0 0 0 
497 1 6.4741 15.7228 0.67268 0 0 0 
498 1 6.4741 15.7228 7.46907 0 0 0 
499 1 8.32385 13.8731 5.20361 0 0 0 
500 1 8.32385 13.8731 12 0 0 0 
501 1 10.1736 14.7979 2.93814 0 0 0 
502 1 10.1736 14.7979 9.73454 0 0 0 
503 1 9.24872 15.7228 0.67268 0 0 0 
504 1 9.24872 15.7228 7.46907 0 0 0 
505 1 11.0985 13.8731 5.20361 0 0 0 
506 1 11.0985 13.8731 12 0 0 0 
507 1 12.9482 14.7979 2.93814 0 0 0 
508 1 12.9482 14.7979 9.73454 0 0 0 
509 1 12.0233 15.7228 0.67268 0 0 0 
510 1 12.0233 15.7228 7.46907 0 0 0 
511 1 13.8731 13.8731 5.20361 0 0 0 
512 1 13.8731 13.8731 12 0 0 0 
513 1 15.7228 14.7979 2.93814 0 0 0 
514 1 15.7228 14.7979 9.73454 0 0 0 
515 1 14.7979 15.7228 0.67268 0 0 0 
516 1 14.7979 15.7228 7.46907 0 0 0 
517 1 16.6477 13.8731 5.20361 0 0 0 
518 1 16.6477 13.8731 12 0 0 0 
519 1 18.4974 14.7979 2.93814 0 0 0 
520 1 18.4974 14.7979 9.73454 0 0 0 
521 1 17.5726 15.7228 0.67268 0 0 0 
522 1 17.5726 15.7228 7.46907 0 0 0 
523 1 19.4223 13.8731 5.20361 0 0 0 
524 1 19.4223 13.8731 12 0 0 0 
525 1 21.2721 14.7979 2.93814 0 0 0 
526 1 21.2721 14.7979 9.73454 0 0 0 
527 1 20.3472 15.7228 0.67268 0 0 0 
528 1 20.3472 15.7228 7.46907 0 0 0 
529 1 22.1969 13.8731 5.20361 0 0 0 
530 1 22.1969 13.8731 12 0 0 0 
531 1 24.0467 14.7979 2.93814 0 0 0 
532 1 24.0467 14.7979 9.73454 0 0 0 
533 1 23.1218 15.7228 0.67268 0 0 0 
534 1 23.1218 15.7228 7.46907 0 0 0 
535 1 24.9715 13.8731 5.20361 0 0 0 
536 1 24.9715 13.8731 12 0 0 0 
537 1 26.8213 14.7979 2.93814 0 0 0 
538 1 26.8213 14.7979 9.73454 0 0 0 
539 1 25.8964 15.7228 0.67268 0 0 0 
540 1 25.8964 15.7228 7.46907 0 0 0 
541 1 27.7462 13.8731 5.20361 0 0 0 
542 1 27.7462 13.8731 12 0 0 0 
543 1 29.5959 14.7979 2.93814 0 0 0 
544 1 29.5959 14.7979 9.73454 0 0 0 
545 1 28.671 15.7228 0.67268 0 0 0 
546 1 28.671 15.7228 7.46907 0 0 0 
547 1 30.5208 13.8731 5.20361 0 0 0 
548 1 30.5208 13.8731 12 0 0 0 
549 1 32.3705 14.7979 2.93814 0 0 0 
550 1 32.3705 14.7979 9.73454 0 0 0 
551 1 31.4457 15.7228 0.67268 0 0 0 
552 1 31.4457 15.7228 7.46907 0 0 0 
553 1 33.2954 13.8731 5.20361 0 0 0 
554 1 33.2954 13.8731 12 0 0 0 
555 1 35.1451 14.7979 2.93814 0 0 0 
556 1 35.1451 14.7979 9.73454 0 0 0 
557 1 34.2203 15.7228 0.67268 0 0 0 
558 1 34.2203 15.7228 7.46907 0 0 0 
559 1 36.07 13.8731 5.20361 0 0 0 
560 1 36.07 13.8731 12 0 0 0 
561 1 37.9198 14.7979 2.93814 0 0 0 
562 1 37.9198 14.7979 9.73454 0 0 0 
563 1 36.9949 15.7228 0.67268 0 0 0 
564 1 36.9949 15.7228 7.46907 0 0 0 
565 1 38.8446 13.8731 5.20361 0 0 0 
566 1 38.8446 13.8731 12 0 0 0 
567 1 40.6944 14.7979 2.93814 0 0 0 
568 1 40.6944 14.7979 9.73454 0 0 0 
569 1 39.7695 15.7228 0.67268 0 0 0 
570 1 39.7695 15.7228 7.46907 0 0 0 
571 1 41.6192 13.8731 5.20361 0 0 0 
572 1 41.6192 13.8731 12 0 0 0 
573 1 43.469 14.7979 2.93814 0 0 0 
574 1 43.469 14.7979 9.73454 0 0 0 
575 1 42.5441 15.7228 0.67268 0 0 0 
576 1 42.5441 15.7228 7.46907 0 0 0 
577 1 0 16.6477 5.20361 0 0 0 
578 1 0 16.6477 12 0 0 0 
579 1 1.84974 17.5726 2.93814 0 0 0 
580 1 1.84974 17.5726 9.73454 0 0 0 
581 1 0.92487 18.4974 0.67268 0 0 0 
582 1 0.92487 18.4974 7.46907 0 0 0 
583 1 2.77462 16.6477 5.20361 0 0 0 
584 1 2.77462 16.6477 12 0 0 0 
585 1 4.62436 17.5726 2.93814 0 0 0 
586 1 4.62436 17.5726 9.73454 0 0 0 
587 1 3.69949 18.4974 0.67268 0 0 0 
588 1 3.69949 18.4974 7.46907 0 0 0 
589 1 5.54923 16.6477 5.20361 0 0 0 
590 1 5.54923 16.6477 12 0 0 0 
591 1 7.39898 17.5726 2.93814 0 0 0 
592 1 7.39898 17.5726 9.73454 0 0 0 
593 1 6.4741 18.4974 0.67268 0 0 0 
594 1 6.4741 18.4974 7.46907 0 0 0 
595 1 8.32385 16.6477 5.20361 0 0 0 
596 1 8.32385 16.6477 12 0 0 0 
597 1 10.1736 17.5726 2.93814 0 0 0 
598 1 10.1736 17.5726 9.73454 0 0 0 
599 1 9.24872 18.4974 0.67268 0 0 0 
600 1 9.24872 18.4974 7.46907 0 0 0 
601 1 11.0985 16.6477 5.20361 0 0 0 
602 1 11.0985 16.6477 12 0 0 0 
603 1 12.9482 17.5726 2.93814 0 0 0 
604 1 12.9482 17.5726 9.73454 0 0 0 
605 1 12.0233 18.4974 0.67268 0 0 0 
606 1 12.0233 18.4974 7.46907 0 0 0 
607 1 13.8731 16.6477 5.20361 0 0 0 
608 1 13.8731 16.6477 12 0 0 0 
609 1 15.7228 17.5726 2.93814 0 0 0 
610 1 15.7228 17.5726 9.73454 0 0 0 
611 1 14.7979 18.4974 0.67268 0 0 0 
612 1 14.7979 18.4974 7.46907 0 0 0 
613 1 16.6477 16.6477 5.20361 0 0 0 
614 1 16.6477 16.6477 12 0 0 0 
615 1 18.4974 17.5726 2.93814 0 0 0 
616 1 18.4974 17.5726 9.73454 0 0 0 
617 1 17.5726 18.4974 0.67268 0 0 0 
618 1 17.5726 18.4974 7.46907 0 0 0 
619 1 19.4223 16.6477 5.20361 0 0 0 
620 1 19.4223 16.6477 12 0 0 0 
621 1 21.2721 17.5726 2.93814 0 0 0 
622 1 21.2721 17.5726 9.73454 0 0 0 
623 1 20.3472 18.4974 0.67268 0 0 0 
624 1 20.3472 18.4974 7.46907 0 0 0 
625 1 22.1969 16.6477 5.20361 0 0 0 
626 1 22.1969 16.6477 12 0 0 0 
627 1 24.0467 17.5726 2.93814 0 0 0 
628 1 24.0467 17.5726 9.73454 0 0 0 
629 1 23.1218 18.4974 0.67268 0 0 0 
630 1 23.1218 18.4974 7.46907 0 0 0 
631 1 24.9715 16.6477 5.20361 0 0 0 
632 1 24.9715 16.6477 12 0 0 0 
633 1 26.8213 17.5726 2.93814 0 0 0 
634 1 26.8213 17.5726 9.73454 0 0 0 
635 1 25.8964 18.4974 0.67268 0 0 0 
636 1 25.8964 18.4974 7.46907 0 0 0 
637 1 27.7462 16.6477 5.20361 0 0 0 
638 1 27.7462 16.6477 12 0 0 0 
639 1 29.5959 17.5726 2.93814 0 0 0 
640 1 29.5959 17.5726 9.73454 0 0 0 
641 1 28.671 18.4974 0.67268 0 0 0 
642 1 28.671 18.4974 7.46907 0 0 0 
643 1 30.5208 16.6477 5.20361 0 0 0 
644 1 30.5208 16.6477 12 0 0 0 
645 1 32.3705 17.5726 2.93814 0 0 0 
646 1 32.3705 17.5726 9.73454 0 0 0 
647 1 31.4457 18.4974 0.67268 0 0 0 
648 1 31.4457 18.4974 7.46907 0 0 0 
649 1 33.2954 16.6477 5.20361 0 0 0 
650 1 33.2954 16.6477 12 0 0 0 
651 1 35.1451 17.5726 2.93814 0 0 0 
652 1 35.1451 17.5726 9.73454 0 0 0 
653 1 34.2203 18.4974 0.67268 0 0 0 
654 1 34.2203 18.4974 7.46907 0 0 0 
655 1 36.07 16.6477 5.20361 0 0 0 
656 1 36.07 16.6477 12 0 0 0 
657 1 37.9198 17.5726 2.93814 0 0 0 
658 1 37.9198 17.5726 9.73454 0 0 0 
659 1 36.9949 18.4974 0.67268 0 0 0 
660 1 36.9949 18.4974 7.46907 0 0 0 
661 1 38.8446 16.6477 5.20361 0 0 0 
662 1 38.8446 16.6477 12 0 0 0 
663 1 40.6944 17.5726 2.93814 0 0 0 
664 1 40.6944 17.5726 9.73454 0 0 0 
665 1 39.7695 18.4974 0.67268 0 0 0 
666 1 39.7695 18.4974 7.46907 0 0 0 
667 1 41.6192 16.6477 5.20361 0 0 0 
668 1 41.6192 16.6477 12 0 0 0 
669 1 43.469 17.5726 2.93814 0 0 0 
670 1 43.469 17.5726 9.73454 0 0 0 
671 1 42.5441 18.4974 0.67268 0 0 0 
672 1 42.5441 18.4974 7.46907 0 0 0 
673 1 0 19.4223 5.20361 0 0 0 
674 1 0 19.4223 12 0 0 0 
675 1 1.84974 20.3472 2.93814 0 0 0 
676 1 1.84974 20.3472 9.73454 0 0 0 
677 1 0.92487 21.2721 0.67268 0 0 0 
678 1 0.92487 21.2721 7.46907 0 0 0 
679 1 2.77462 19.4223 5.20361 0 0 0 
680 1 2.77462 19.4223 12 0 0 0 
681 1 4.62436 20.3472 2.93814 0 0 0 
682 1 4.62436 20.3472 9.73454 0 0 0 
683 1 3.69949 21.2721 0.67268 0 0 0 
684 1 3.69949 21.2721 7.46907 0 0 0 
685 1 5.54923 19.4223 5.20361 0 0 0 
686 1 5.54923 19.4223 12 0 0 0 
687 1 7.39898 20.3472 2.93814 0 0 0 
688 1 7.39898 20.3472 9.73454 0 0 0 
689 1 6.4741 21.2721 0.67268 0 0 0 
690 1 6.4741 21.2721 7.46907 0 0 0 
691 1 8.32385 19.4223 5.20361 0 0 0 
692 1 8.32385 19.4223 12 0 0 0 
693 1 10.1736 20.3472 2.93814 0 0 0 
694 1 10.1736 20.3472 9.73454 0 0 0 
695 1 9.24872 21.2721 0.67268 0 0 0 
696 1 9.24872 21.2721 7.46907 0 0 0 
697 1 11.0985 19.4223 5.20361 0 0 0 
698 1 11.0985 19.4223 12 0 0 0 
699 1 12.9482 20.3472 2.93814 0 0 0 
700 1 12.9482 20.3472 9.73454 0 0 0 
701 1 12.0233 21.2721 0.67268 0 0 0 
702 1 12.0233 21.2721 7.46907 0 0 0 
703 1 13.8731 19.4223 5.20361 0 0 0 
704 1 13.8731 19.4223 12 0 0 0 
705 1 15.7228 20.3472 2.93814 0 0 0 
706 1 15.7228 20.3472 9.73454 0 0 0 
707 1 14.7979 21.2721 0.67268 0 0 0 
708 1 14.7979 21.2721 7.46907 0 0 0 
709 1 16.6477 19.4223 5.20361 0 0 0 
710 1 16.6477 19.4223 12 0 0 0 
711 1 18.4974 20.3472 2.93814 0 0 0 
712 1 18.4974 20.3472 9.73454 0 0 0 
713 1 17.5726 21.2721 0.67268 0 0 0 
714 1 17.5726 21.2721 7.46907 0 0 0 
715 1 19.4223 19.4223 5.20361 0 0 0 
716 1 19.4223 19.4223 12 0 0 0 
717 1 21.2721 20.3472 2.93814 0 0 0 
718 1 21.2721 20.3472 9.73454 0 0 0 
719 1 20.3472 21.2721 0.67268 0 0 0 
720 1 20.3472 21.2721 7.46907 0 0 0 
721 1 22.1969 19.4223 5.20361 0 0 0 
722 1 22.1969 19.4223 12 0 0 0 
723 1 24.0467 20.3472 2.93814 0 0 0 
724 1 24.0467 20.3472 9.73454 0 0 0 
725 1 23.1218 21.2721 0.67268 0 0 0 
726 1 23.1218 21.2721 7.46907 0 0 0 
727 1 24.9715 19.4223 5.20361 0 0 0 
728 1 24.9715 19.4223 12 0 0 0 
729 1 26.8213 20.3472 2.93814 0 0 0 
730 1 26.8213 20.3472 9.73454 0 0 0 
731 1 25.8964 21.2721 0.67268 0 0 0 
732 1 25.8964 21.2721 7.46907 0 0 0 
733 1 27.7462 19.4223 5.20361 0 0 0 
734 1 27.7462 19.4223 12 0 0 0 
735 1 29.5959 20.3472 2.93814 0 0 0 
736 1 29.5959 20.3472 9.73454 0 0 0 
737 1 28.671 21.2721 0.67268 0 0 0 
738 1 28.671 21.2721 7.46907 0 0 0 
739 1 30.5208 19.4223 5.20361 0 0 0 
740 1 30.5208 19.4223 12 0 0 0 
741 1 32.3705 20.3472 2.93814 0 0 0 
742 1 32.3705 20.3472 9.73454 0 0 0 
743 1 31.4457 21.2721 0.67268 0 0 0 
744 1 31.4457 21.2721 7.46907 0 0 0 
745 1 33.2954 19.4223 5.20361 0 0 0 
746 1 33.2954 19.4223 12 0 0 0 
747 1 35.1451 20.3472 2.93814 0 0 0 
748 1 35.1451 20.3472 9.73454 0 0 0 
749 1 34.2203 21.2721 0.67268 0 0 0 
750 1 34.2203 21.2721 7.46907 0 0 0 
751 1 36.07 19.4223 5.20361 0 0 0 
752 1 36.07 19.4223 12 0 0 0 
753 1 37.9198 20.3472 2.93814 0 0 0 
754 1 37.9198 20.3472 9.73454 0 0 0 
755 1 36.9949 21.2721 0.67268 0 0 0 
756 1 36.9949 21.2721 7.46907 0 0 0 
757 1 38.8446 19.4223 5.20361 0 0 0 
758 1 38.8446 19.4223 12 0 0 0 
759 1 40.6944 20.3472 2.93814 0 0 0 
760 1 40.6944 20.3472 9.73454 0 0 0 
761 1 39.7695 21.2721 0.67268 0 0 0 
762 1 39.7695 21.2721 7.46907 0 0 0 
763 1 41.6192 19.4223 5.20361 0 0 0 
764 1 41.6192 19.4223 12 0 0 0 
765 1 43.469 20.3472 2.93814 0 0 0 
766 1 43.469 20.3472 9.73454 0 0 0 
767 1 42.5441 21.2721 0.67268 0 0 0 
768 1 42.5441 21.2721 7.46907 0 0 0 
769 1 0 22.1969 5.20361 0 0 0 
770 1 0 22.1969 12 0 0 0 
771 1 1.84974 23.1218 2.93814 0 0 0 
772 1 1.84974 23.1218 9.73454 0 0 0 
773 1 0.92487 24.0467 0.67268 0 0 0 
774 1 0.92487 24.0467 7.46907 0 0 0 
775 1 2.77462 22.1969 5.20361 0 0 0 
776 1 2.77462 22.1969 12 0 0 0 
777 1 4.62436 23.1218 2.93814 0 0 0 
778 1 4.62436 23.1218 9.73454 0 0 0 
779 1 3.69949 24.0467 0.67268 0 0 0 
780 1 3.69949 24.0467 7.46907 0 0 0 
781 1 5.54923 22.1969 5.20361 0 0 0 
782 1 5.54923 22.1969 12 0 0 0 
783 1 7.39898 23.1218 2.93814 0 0 0 
784 1 7.39898 23.1218 9.73454 0 0 0 
785 1 6.4741 24.0467 0.67268 0 0 0 
786 1 6.4741 24.0467 7.46907 0 0 0 
787 1 8.32385 22.1969 5.20361 0 0 0 
788 1 8.32385 22.1969 12 0 0 0 
789 1 10.1736 23.1218 2.93814 0 0 0 
790 1 10.1736 23.1218 9.73454 0 0 0 
791 1 9.24872 24.0467 0.67268 0 0 0 
792 1 9.24872 24.0467 7.46907 0 0 0 
793 1 11.0985 22.1969 5.20361 0 0 0 
794 1 11.0985 22.1969 12 0 0 0 
795 1 12.9482 23.1218 2.93814 0 0 0 
796 1 12.9482 23.1218 9.73454 0 0 0 
797 1 12.0233 24.0467 0.67268 0 0 0 
798 1 12.0233 24.0467 7.46907 0 0 0 
799 1 13.8731 22.1969 5.20361 0 0 0 
800 1 13.8731 22.1969 12 0 0 0 
801 1 15.7228 23.1218 2.93814 0 0 0 
802 1 15.7228 23.1218 9.73454 0 0 0 
803 1 14.7979 24.0467 0.67268 0 0 0 
804 1 14.7979 24.0467 7.46907 0 0 0 
805 1 16.6477 22.1969 5.20361 0 0 0 
806 1 16.6477 22.1969 12 0 0 0 
807 1 18.4974 23.1218 2.93814 0 0 0 
808 1 18.4974 23.1218 9.73454 0 0 0 
809 1 17.5726 24.0467 0.67268 0 0 0 
810 1 17.5726 24.0467 7.46907 0 0 0 
811 1 19.4223 22.1969 5.20361 0 0 0 
812 1 19.4223 22.1969 12 0 0 0 
813 1 21.2721 23.1218 2.93814 0 0 0 
814 1 21.2721 23.1218 9.73454 0 0 0 
815 1 20.3472 24.0467 0.67268 0 0 0 
816 1 20.3472 24.0467 7.46907 0 0 0 
817 1 22.1969 22.1969 5.20361 0 0 0 
818 1 22.1969 22.1969 12 0 0 0 
819 1 24.0467 23.1218 2.93814 0 0 0 
820 1 24.0467 23.1218 9.73454 0 0 0 
821 1 23.1218 24.0467 0.67268 0 0 0 
822 1 23.1218 24.0467 7.46907 0 0 0 
823 1 24.9715 22.1969 5.20361 0 0 0 
824 1 24.9715 22.1969 12 0 0 0 
825 1 26.8213 23.1218 2.93814 0 0 0 
826 1 26.8213 23.1218 9.73454 0 0 0 
827 1 25.8964 24.0467 0.67268 0 0 0 
828 1 25.8964 24.0467 7.46907 0 0 0 
829 1 27.7462 22.1969 5.20361 0 0 0 
830 1 27.7462 22.1969 12 0 0 0 
831 1 29.5959 23.1218 2.93814 0 0 0 
832 1 29.5959 23.1218 9.73454 0 0 0 
833 1 28.671 24.0467 0.67268 0 0 0 
834 1 28.671 24.0467 7.46907 0 0 0 
835 1 30.5208 22.1969 5.20361 0 0 0 