
#Set velocity (in km/s)
variable v equal 9

#Controls angle of impact
#a = angle from horizontal/10
variable        a equal 9

#Loop through the simulation several times with different random seeds
variable        b equal 1
label           loopb
variable        seed equal 240323*$b
variable        seed equal 240323*1

#Set up impact simulation
print		"<<<<<<<<< Vel=$v, Angle=$a, Test=$b >>>>>>>>>>>"
<<<<<<<<< Vel=9, Angle=9, Test=1 >>>>>>>>>>>
units	        real
newton	     	on
atom_style full

#Periodic boundary conditions
boundary        p p p

#Read the data file
read_data       data.${sname}
read_data       data.pth2o
  triclinic box = (0 0 0) to (44.3939 44.3939 50) with tilt (0 0 0)
  1 by 1 by 1 MPI processor grid
  reading atoms ...
  1539 atoms
  0 = max # of 1-2 neighbors
  0 = max # of 1-3 neighbors
  0 = max # of 1-4 neighbors
  1 = max # of special neighbors

#Obtain the REAX pair coefficients from the ffield file
pair_style      reax/c NULL safezone 5.0 mincap 1200
pair_coeff  	* * ffield.reax Pt H O

#Apply qeq charge equilibration
fix 		qeq all qeq/reax 1 0.0 10.0 1.0e-6 reax/c

#Details of how lammps computes neighboring atoms for pairwise interactions
neighbor        2.5  bin
neigh_modify    delay 10 every 2 check yes one 15000 page 150000

#group impacting H2O by atom ids
group impactor id 1537:1539
3 atoms in group impactor

#Print thermodynamic data every 10 steps
thermo          10

#Randomize initial position and set far to equilibrate
displace_atoms 	impactor move 20.0 20.0 0.0 units box

#Compute the center of mass of the impactor
compute         cmi impactor com
variable        xd equal c_cmi[1]
variable        yd equal c_cmi[2]
variable        zd equal c_cmi[3]
variable        ranangle equal random(0,90,${seed})
variable        ranangle equal random(0,90,240323)
thermo_style    custom step etotal pe ke temp press vol c_cmi[1] c_cmi[2] c_cmi[3]

#Rotate the impactor before beginning simulation
print ">>>>>> Rotated impactor by ${ranangle} <<<<<<<"
>>>>>> Rotated impactor by 38.1471168994904 <<<<<<<
run 0
Neighbor list info ...
  update every 2 steps, delay 10 steps, check yes
  max neighbors/atom: 15000, page size: 150000
  master list distance cutoff = 12.5
  ghost atom cutoff = 12.5
  binsize = 6.25, bins = 8 8 8
  2 neighbor lists, perpetual/occasional/extra = 2 0 0
  (1) pair reax/c, perpetual
      attributes: half, newton off, ghost
      pair build: half/bin/newtoff/ghost
      stencil: half/ghost/bin/3d/newtoff
      bin: standard
  (2) fix qeq/reax, perpetual, copy from (1)
      attributes: half, newton off, ghost
      pair build: copy
      stencil: none
      bin: none
Per MPI rank memory allocation (min/avg/max) = 655.1 | 655.1 | 655.1 Mbytes
Step TotEng PotEng KinEng Temp Press Volume c_cmi[1] c_cmi[2] c_cmi[3] 
       0   -175150.65   -175150.65            0            0   -10243.304    98540.745    22.227217    20.053875    32.690199 
Loop time of 1.90735e-06 on 1 procs for 0 steps with 1539 atoms

157.3% CPU use with 1 MPI tasks x no OpenMP threads

MPI task timing breakdown:
Section |  min time  |  avg time  |  max time  |%varavg| %total
---------------------------------------------------------------
Pair    | 0          | 0          | 0          |   0.0 |  0.00
Bond    | 0          | 0          | 0          |   0.0 |  0.00
Neigh   | 0          | 0          | 0          |   0.0 |  0.00
Comm    | 0          | 0          | 0          |   0.0 |  0.00
Output  | 0          | 0          | 0          |   0.0 |  0.00
Modify  | 0          | 0          | 0          |   0.0 |  0.00
Other   |            | 1.907e-06  |            |       |100.00

Nlocal:    1539 ave 1539 max 1539 min
Histogram: 1 0 0 0 0 0 0 0 0 0
Nghost:    5964 ave 5964 max 5964 min
Histogram: 1 0 0 0 0 0 0 0 0 0
Neighs:    291267 ave 291267 max 291267 min
Histogram: 1 0 0 0 0 0 0 0 0 0

Total # of neighbors = 291267
Ave neighs/atom = 189.257
Ave special neighs/atom = 0
Neighbor list builds = 0
Dangerous builds = 0
displace_atoms  impactor rotate ${xd} ${yd} ${zd} 0.0 0.0 1.0 ${ranangle}
displace_atoms  impactor rotate 22.22721660746 ${yd} ${zd} 0.0 0.0 1.0 ${ranangle}
displace_atoms  impactor rotate 22.22721660746 20.053874955595 ${zd} 0.0 0.0 1.0 ${ranangle}
displace_atoms  impactor rotate 22.22721660746 20.053874955595 32.6901990754796 0.0 0.0 1.0 ${ranangle}
displace_atoms  impactor rotate 22.22721660746 20.053874955595 32.6901990754796 0.0 0.0 1.0 6.82583034038544
displace_atoms  impactor rotate ${xd} ${yd} ${zd} 0.0 1.0 0.0 ${ranangle}
displace_atoms  impactor rotate 22.22721660746 ${yd} ${zd} 0.0 1.0 0.0 ${ranangle}
displace_atoms  impactor rotate 22.22721660746 20.053874955595 ${zd} 0.0 1.0 0.0 ${ranangle}
displace_atoms  impactor rotate 22.22721660746 20.053874955595 32.6901990754796 0.0 1.0 0.0 ${ranangle}
displace_atoms  impactor rotate 22.22721660746 20.053874955595 32.6901990754796 0.0 1.0 0.0 4.71330642700195
displace_atoms  impactor rotate ${xd} ${yd} ${zd} 1.0 0.0 0.0 ${ranangle}
displace_atoms  impactor rotate 22.22721660746 ${yd} ${zd} 1.0 0.0 0.0 ${ranangle}
displace_atoms  impactor rotate 22.22721660746 20.053874955595 ${zd} 1.0 0.0 0.0 ${ranangle}
displace_atoms  impactor rotate 22.22721660746 20.053874955595 32.6901990754796 1.0 0.0 0.0 ${ranangle}
displace_atoms  impactor rotate 22.22721660746 20.053874955595 32.6901990754796 1.0 0.0 0.0 0.0323742628097534

#Simulation timestep
timestep  	0.1

#Print data to lammptrj file
dump            1 all custom ${dumpstep}  ${sname}.$v.lammpstrj id type x y z vx vy vz
dump            1 all custom 100  ${sname}.$v.lammpstrj id type x y z vx vy vz
dump            1 all custom 100  pth2o.$v.lammpstrj id type x y z vx vy vz
dump            1 all custom 100  pth2o.9.lammpstrj id type x y z vx vy vz
dump_modify     1 sort id

#First, minimize structure
min_style       cg
minimize        0.0 1e-6 ${minsteps} 5000
minimize        0.0 1e-6 2000 5000
WARNING: Using 'neigh_modify every 1 delay 0 check yes' setting during minimization (../min.cpp:168)
Per MPI rank memory allocation (min/avg/max) = 657.7 | 657.7 | 657.7 Mbytes
Step TotEng PotEng KinEng Temp Press Volume c_cmi[1] c_cmi[2] c_cmi[3] 
       0   -175150.65   -175150.65            0            0   -10243.304    98540.745    22.227217    20.053875    32.690199 
      10   -180521.25   -180521.25            0            0   -14670.741    98540.745    22.270813     20.03625    32.718326 
      20   -183858.12   -183858.12            0            0     -14040.2    98540.745    22.270813    20.036249    32.718308 
      30    -187033.1    -187033.1            0            0   -12101.108    98540.745    22.270813     20.03625    32.718337 
      40   -189590.85   -189590.85            0            0   -9479.8697    98540.745    22.270813    20.036251    32.718354 
      50   -192125.99   -192125.99            0            0   -7461.2087    98540.745    22.270813     20.03625    32.718338 
      60    -193714.5    -193714.5            0            0    3907.6989    98540.745    22.240719    20.048416    32.698906 
      70   -193725.73   -193725.73            0            0    2580.4512    98540.745    22.233365    20.051389    32.694161 
      80   -193726.37   -193726.37            0            0    2241.1269    98540.745    22.235192     20.05065    32.695341 
      90   -193726.44   -193726.44            0            0    2163.7367    98540.745    22.235113    20.050683    32.695289 
     100   -193726.44   -193726.44            0            0    2167.0216    98540.745    22.235268     20.05062    32.695391 
     108   -193726.44   -193726.44            0            0    2166.1431    98540.745     22.23525    20.050627    32.695376 
Loop time of 44.6951 on 1 procs for 108 steps with 1539 atoms

99.4% CPU use with 1 MPI tasks x no OpenMP threads

Minimization stats:
  Stopping criterion = linesearch alpha is zero
  Energy initial, next-to-last, final = 
        -175150.648513     -193726.443519     -193726.443475
  Force two-norm initial, final = 630.233 0.0253096
  Force max component initial, final = 45.9564 0.0115236
  Final line search alpha, max atom move = 3.05176e-05 3.51673e-07
  Iterations, force evaluations = 108 259

MPI task timing breakdown:
Section |  min time  |  avg time  |  max time  |%varavg| %total
---------------------------------------------------------------
Pair    | 40.762     | 40.762     | 40.762     |   0.0 | 91.20
Bond    | 0.00015426 | 0.00015426 | 0.00015426 |   0.0 |  0.00
Neigh   | 0.025928   | 0.025928   | 0.025928   |   0.0 |  0.06
Comm    | 0.012318   | 0.012318   | 0.012318   |   0.0 |  0.03
Output  | 0.0060034  | 0.0060034  | 0.0060034  |   0.0 |  0.01
Modify  | 3.8691     | 3.8691     | 3.8691     |   0.0 |  8.66
Other   |            | 0.01962    |            |       |  0.04

Nlocal:    1539 ave 1539 max 1539 min
Histogram: 1 0 0 0 0 0 0 0 0 0
Nghost:    5964 ave 5964 max 5964 min
Histogram: 1 0 0 0 0 0 0 0 0 0
Neighs:    302424 ave 302424 max 302424 min
Histogram: 1 0 0 0 0 0 0 0 0 0

Total # of neighbors = 302424
Ave neighs/atom = 196.507
Ave special neighs/atom = 0
Neighbor list builds = 1
Dangerous builds = 0

#Then, run equilibration
velocity 	all create 100.0 4928459 rot yes dist gaussian #generates initial velocities at 100 K  via a gaussian distribution
fix 		equil all nvt temp 100.0 100.0 50.0 #nvt dynamics on all atoms at starting and ending temps of 100 K w 50 fs damping
run 		${eqsteps}
run 		500
Per MPI rank memory allocation (min/avg/max) = 657.8 | 657.8 | 657.8 Mbytes
Step TotEng PotEng KinEng Temp Press Volume c_cmi[1] c_cmi[2] c_cmi[3] 
     108   -193267.99   -193726.44    458.44859          100     2378.811    98540.745     22.23525    20.050627    32.695376 
     110   -193267.99   -193726.42    458.42547    99.994958    2378.2886    98540.745    22.235193    20.051241    32.695248 
     120   -193267.99   -193725.66    457.66384    99.828825    2376.5494    98540.745    22.234905    20.054311     32.69461 
     130   -193267.99   -193724.09    456.09497    99.486613    2376.6724    98540.745    22.234617    20.057381    32.693972 
     140   -193267.99   -193722.06    454.06751     99.04437    2378.9604    98540.745    22.234329    20.060451    32.693334 
     150   -193267.99   -193719.58    451.59061     98.50409    2383.4258    98540.745    22.234041    20.063521    32.692696 
     160   -193267.97   -193716.32    448.34364    97.795838    2389.7716    98540.745    22.233753    20.066592    32.692058 
     170   -193267.96   -193712.03     444.0729    96.864276    2397.4002    98540.745    22.233465    20.069662    32.691421 
     180   -193267.93   -193706.87    438.94639    95.746045    2405.5586    98540.745    22.233178    20.072732    32.690783 
     190   -193267.88   -193701.27    433.38833    94.533683      2413.66    98540.745     22.23289    20.075803    32.690145 
     200   -193267.82   -193695.35    427.53269     93.25641    2421.6033    98540.745    22.232602    20.078873    32.689507 
     210   -193267.73    -193688.8    421.06847    91.846388    2429.8665    98540.745    22.232314    20.081944    32.688869 
     220   -193267.62   -193681.33    413.71206    90.241756     2439.224    98540.745    22.232026    20.085015     32.68823 
     230   -193267.47   -193673.08    405.60666    88.473751    2450.3051    98540.745    22.231738    20.088087    32.687592 
     240   -193267.29   -193664.46     397.1631    86.631983    2463.3233    98540.745     22.23145    20.091159    32.686954 
     250   -193267.08   -193655.69    388.61408    84.767211    2478.1107    98540.745    22.231161    20.094233    32.686315 
     260   -193266.82   -193646.61    379.78694    82.841774    2494.2128    98540.745    22.230873    20.097307    32.685677 
     270   -193266.51   -193636.87    370.35074    80.783485    2510.9168    98540.745    22.230585    20.100382    32.685038 
     280   -193266.16   -193626.45    360.29498    78.590052    2527.3888    98540.745    22.230296    20.103458    32.684398 
     290   -193265.75   -193615.77    350.01603    76.347936    2543.0947    98540.745    22.230008    20.106537    32.683759 
     300   -193265.29   -193605.12    339.82922    74.125918    2558.1408    98540.745    22.229719    20.109617    32.683119 
     310   -193264.77   -193594.37    329.60613    71.895985    2573.1391    98540.745     22.22943    20.112699    32.682478 
     320   -193264.19   -193583.23    319.04048    69.591333    2588.8124    98540.745     22.22914    20.115784    32.681838 
     330   -193263.56   -193571.66    308.09652     67.20416     2605.665    98540.745    22.228851    20.118872    32.681196 
     340   -193262.88   -193559.96    297.07714    64.800535    2623.7699    98540.745    22.228561    20.121963    32.680554 
     350   -193262.16   -193548.47    286.31681    62.453418    2642.7771    98540.745    22.228271    20.125058    32.679911 
     360   -193261.39   -193537.23    275.84301      60.1688    2662.0804    98540.745     22.22798    20.128156    32.679267 
     370   -193260.58   -193525.95    265.36772    57.883857    2680.9936    98540.745    22.227689     20.13126    32.678622 
     380   -193259.75   -193514.43    254.67606    55.551716    2698.8823    98540.745    22.227398    20.134368    32.677976 
     390   -193258.91   -193502.87    243.95809    53.213839    2715.3693    98540.745    22.227106    20.137481    32.677329 
     400   -193258.07   -193491.67     233.5978    50.953981    2730.5063    98540.745    22.226813    20.140599    32.676681 
     410   -193257.24   -193480.93    223.69508     48.79393     2744.836    98540.745     22.22652    20.143724    32.676032 
     420   -193256.43   -193470.43    214.00451    46.680155    2759.1215    98540.745    22.226227    20.146853    32.675382 
     430   -193255.65   -193459.96    204.31084    44.565704    2773.9723    98540.745    22.225933    20.149989    32.674731 
     440    -193254.9   -193449.62    194.71344    42.472252    2789.4625    98540.745    22.225638    20.153131    32.674078 
     450    -193254.2   -193439.75    185.54525    40.472422     2805.118    98540.745    22.225343    20.156278    32.673424 
     460   -193253.54   -193430.57    177.03084      38.6152    2820.1383    98540.745    22.225047    20.159431    32.672769 
     470   -193252.91   -193421.94    169.02691    36.869327    2833.7293    98540.745    22.224751     20.16259    32.672112 
     480   -193252.31   -193413.53    161.21343    35.164997    2845.3852    98540.745    22.224454    20.165755    32.671455 
     490   -193251.74    -193405.3    153.55638    33.494788    2855.0621    98540.745    22.224157    20.168925    32.670796 
     500    -193251.2   -193397.59    146.39109    31.931845    2863.1197    98540.745    22.223859    20.172101    32.670136 
     510   -193250.67   -193390.67    140.00748    30.539406    2870.1518    98540.745    22.223561    20.175283    32.669475 
     520   -193250.15   -193384.48    134.33719    29.302565    2876.8125    98540.745    22.223262    20.178471    32.668813 
     530   -193249.63   -193378.74    129.10259    28.160756    2883.5754    98540.745    22.222962    20.181665    32.668149 
     540   -193249.13   -193373.29     124.1692    27.084652    2890.4733    98540.745    22.222662    20.184866    32.667484 
     550   -193248.62   -193368.34    119.72248    26.114702    2897.0484    98540.745    22.222362    20.188073    32.666818 
     560   -193248.11    -193364.2    116.08945     25.32224    2902.5518    98540.745     22.22206    20.191287     32.66615 
     570    -193247.6   -193360.94    113.33841    24.722163     2906.281    98540.745    22.221758    20.194507    32.665481 
     580   -193247.08   -193358.23    111.15151    24.245143    2907.8394    98540.745    22.221455    20.197735     32.66481 
     590   -193246.56   -193355.79     109.2293    23.825855    2907.3049    98540.745    22.221152    20.200971    32.664138 
     600   -193246.02   -193353.72    107.69264    23.490668    2905.1693    98540.745    22.220848    20.204215    32.663464 
     608   -193245.59   -193352.59    106.99247    23.337944    2902.7717    98540.745    22.220604    20.206815    32.662923 
Loop time of 86.4088 on 1 procs for 500 steps with 1539 atoms

Performance: 0.050 ns/day, 480.049 hours/ns, 5.786 timesteps/s
99.4% CPU use with 1 MPI tasks x no OpenMP threads

MPI task timing breakdown:
Section |  min time  |  avg time  |  max time  |%varavg| %total
---------------------------------------------------------------
Pair    | 79.997     | 79.997     | 79.997     |   0.0 | 92.58
Bond    | 0.00029707 | 0.00029707 | 0.00029707 |   0.0 |  0.00
Neigh   | 0          | 0          | 0          |   0.0 |  0.00
Comm    | 0.023437   | 0.023437   | 0.023437   |   0.0 |  0.03
Output  | 0.032047   | 0.032047   | 0.032047   |   0.0 |  0.04
Modify  | 6.3497     | 6.3497     | 6.3497     |   0.0 |  7.35
Other   |            | 0.00583    |            |       |  0.01

Nlocal:    1539 ave 1539 max 1539 min
Histogram: 1 0 0 0 0 0 0 0 0 0
Nghost:    5964 ave 5964 max 5964 min
Histogram: 1 0 0 0 0 0 0 0 0 0
Neighs:    311995 ave 311995 max 311995 min
Histogram: 1 0 0 0 0 0 0 0 0 0

Total # of neighbors = 311995
Ave neighs/atom = 202.726
Ave special neighs/atom = 0
Neighbor list builds = 0
Dangerous builds = 0
unfix 		equil

#Bring the impactor close to the surface
displace_atoms  impactor move 0.0 0.0 -15.0 units box

#Give the impactor a velocity toward the surface
variable 	impv equal $v*-0.01
variable 	impv equal 9*-0.01
variable 	ang equal PI*$a*10/180.0
variable 	ang equal PI*9*10/180.0
variable 	vy equal ${impv}*cos(${ang})
variable 	vy equal -0.09*cos(${ang})
variable 	vy equal -0.09*cos(1.5707963267949)
variable 	vz equal ${impv}*sin(${ang})
variable 	vz equal -0.09*sin(${ang})
variable 	vz equal -0.09*sin(1.5707963267949)
velocity 	impactor set NULL ${vy} ${vz} sum yes units box
velocity 	impactor set NULL 3.14233320495882e-16 ${vz} sum yes units box
velocity 	impactor set NULL 3.14233320495882e-16 -0.09 sum yes units box

#Guess the number of steps that will be needed
variable impsteps equal ceil(-20/${vz}*10)
variable impsteps equal ceil(-20/-0.09*10)

#Run the impact simulation
fix  		dyn all nve
fix 		frags all reax/c/species 10 10 100 species.$b.$a.out element Pt H O cutoff 2 2 .88 cutoff 3 3 .88 cutoff 2 3 .88
fix 		frags all reax/c/species 10 10 100 species.1.$a.out element Pt H O cutoff 2 2 .88 cutoff 3 3 .88 cutoff 2 3 .88
fix 		frags all reax/c/species 10 10 100 species.1.9.out element Pt H O cutoff 2 2 .88 cutoff 3 3 .88 cutoff 2 3 .88
WARNING: Resetting reneighboring criteria for fix reax/c/species (../fix_reaxc_species.cpp:103)
fix  		bonds all reax/c/bonds 100 bonds.reaxc.$b.$a.${sname}
fix  		bonds all reax/c/bonds 100 bonds.reaxc.1.$a.${sname}
fix  		bonds all reax/c/bonds 100 bonds.reaxc.1.9.${sname}
fix  		bonds all reax/c/bonds 100 bonds.reaxc.1.9.pth2o
run 		${impsteps}
run 		2223
Per MPI rank memory allocation (min/avg/max) = 668.8 | 668.8 | 668.8 Mbytes
Step TotEng PotEng KinEng Temp Press Volume c_cmi[1] c_cmi[2] c_cmi[3] 
     608   -193068.61   -193352.61    284.00266    61.948639    2984.8472    98540.745    22.220604    20.206815    17.662923 
     610   -193068.61   -193352.42     283.8111    61.906855    2984.1484    98540.745    22.220543    20.207466    17.644788 
     620   -193068.61   -193351.98     283.3748    61.811686    2980.6125    98540.745    22.220238     20.21072    17.554112 
     630   -193068.61   -193352.18     283.5752    61.855398    2977.3187    98540.745    22.219933    20.213974    17.463435 
     640   -193068.61   -193352.68    284.07016    61.963363    2974.3122    98540.745    22.219627    20.217228    17.372757 
     650   -193068.61   -193353.42    284.81102    62.124965     2971.076    98540.745    22.219322    20.220482    17.282078 
     660   -193068.61   -193354.72    286.11247    62.408846    2966.7217    98540.745    22.219017    20.223736    17.191399 
     670   -193068.61   -193356.85    288.23573    62.871985     2960.507    98540.745    22.218712     20.22699    17.100719 
     680   -193068.61   -193359.58    290.97332    63.469127    2952.2734    98540.745    22.218407    20.230244    17.010038 
     690   -193068.61    -193362.5    293.88414    64.104056    2942.4459    98540.745    22.218102    20.233498    16.919356 
     700   -193068.61   -193365.47    296.85931    64.753021    2931.7333    98540.745    22.217796    20.236752    16.828673 
     710   -193068.61   -193368.82    300.20614    65.483056    2920.8161    98540.745    22.217491    20.240006    16.737989 
     720   -193068.61   -193372.82     304.2119     66.35682    2910.2228    98540.745    22.217186     20.24326    16.647303 
     730   -193068.61   -193377.39    308.77742    67.352683    2900.2357    98540.745    22.216881    20.246514    16.556615 
     740   -193068.61   -193382.11    313.50444    68.383773    2890.8029    98540.745    22.216576    20.249768    16.465926 
     750   -193068.61   -193386.73    318.12102    69.390773    2881.4832    98540.745     22.21627    20.253022    16.375235 
     760   -193068.61   -193391.41    322.79491    70.410276    2871.5629    98540.745    22.215965    20.256276    16.284541 
     770   -193068.61   -193396.52    327.91039    71.526099    2860.3601    98540.745     22.21566     20.25953    16.193845 
     780   -193068.61   -193402.11    333.49781    72.744866    2847.6491    98540.745    22.215354    20.262784    16.103146 
     790   -193068.61   -193407.74    339.12635    73.972603    2833.8901    98540.745    22.215049    20.266038    16.012444 
     800   -193068.61   -193413.07     344.4591    75.135818    2819.9856    98540.745    22.214744    20.269292    15.921737 
     810   -193068.61   -193418.25    349.64606    76.267236    2806.7559    98540.745    22.214438    20.272545    15.831027 
     820   -193068.61   -193423.67     355.0625    77.448707    2794.6406    98540.745    22.214133    20.275799    15.740311 
     830   -193068.61   -193429.42    360.81205    78.702839    2783.7378    98540.745    22.213827    20.279053    15.649589 
     840   -193068.61   -193435.18    366.57018    79.958842    2773.8313    98540.745    22.213522    20.282306     15.55886 
     850   -193068.61   -193440.54    371.92889    81.127721     2764.378    98540.745    22.213216     20.28556    15.468123 
     860   -193068.61   -193445.49    376.87974    82.207635    2754.6192    98540.745    22.212911    20.288813    15.377378 
     870   -193068.61   -193450.43    381.81538    83.284232    2743.9805    98540.745    22.212605    20.292067    15.286622 
     880   -193068.61   -193455.58    386.96692    84.407922    2732.4783    98540.745    22.212299     20.29532    15.195856 
     890   -193068.61   -193460.68    392.06445     85.51983    2720.6954    98540.745    22.211993    20.298573    15.105076 
     900   -193068.61   -193465.32    396.70488    86.532032    2709.4632    98540.745    22.211686    20.301826    15.014282 
     910   -193068.61   -193469.46    400.84529    87.435168    2699.4913    98540.745     22.21138    20.305079    14.923472 
     920   -193068.61   -193473.41      404.801    88.298014    2690.9759    98540.745    22.211073    20.308331    14.832643 
     930   -193068.61   -193477.46    408.84435    89.179979    2684.0808    98540.745    22.210767    20.311584    14.741791 
     940   -193068.61   -193481.47    412.85847    90.055567    2678.2442    98540.745    22.210462    20.314837     14.65091 
     950   -193068.61   -193485.07    416.45858    90.840848    2673.1319    98540.745    22.210158    20.318092    14.559995 
     960   -193068.61   -193488.04    419.42984    91.488959     2668.032    98540.745    22.209854     20.32135    14.469039 
     970   -193068.61   -193490.65    422.03823    92.057919    2662.2742    98540.745    22.209551    20.324611    14.378036 
     980   -193068.61   -193493.28     424.6677    92.631478    2656.0453    98540.745    22.209248    20.327874    14.286979 
     990   -193068.61   -193495.89    427.28183     93.20169    2649.9108    98540.745    22.208944    20.331138    14.195865 
    1000    -193068.6   -193498.09    429.49483    93.684404    2644.7717    98540.745    22.208639    20.334401    14.104695 
    1010    -193068.6   -193499.64    431.04037    94.021529    2641.6182    98540.745    22.208326    20.337658    14.013478 
    1020   -193068.59   -193500.61    432.01313    94.233714    2640.6527    98540.745    22.208001    20.340901    13.922238 
    1030   -193068.54    -193501.2    432.65978    94.374765    2641.5281    98540.745    22.207654     20.34412    13.831016 
    1040   -193068.55   -193501.44    432.89168     94.42535    2645.4527    98540.745    22.207278    20.347298    13.739881 
    1050   -193068.55   -193500.41     431.8603    94.200379    2651.6401    98540.745    22.206825    20.350416    13.648999 
    1060   -193068.01    -193495.8    427.78538    93.311527     2666.098    98540.745    22.206157    20.353449    13.558751 
    1070   -193067.95   -193485.71    417.75457    91.123537    2727.3554    98540.745    22.204685    20.356381    13.470472 
    1080   -193067.97   -193485.85     417.8817    91.151268    2709.2379    98540.745    22.200972    20.359257    13.387191 
    1090    -193068.7   -193489.36    420.66713    91.758847    2670.2652    98540.745    22.195421    20.362048    13.308208 
    1100    -193068.7   -193487.85    419.14951    91.427812    2662.7965    98540.745    22.189445     20.36457    13.231024 
    1110   -193068.68   -193483.57    414.88564    90.497746    2655.2898    98540.745     22.18351    20.366669    13.155275 
    1120   -193068.67   -193475.21    406.53942    88.677211    2656.1567    98540.745    22.177965    20.368099     13.08126 
    1130   -193068.66   -193465.77     397.1053    86.619375    2658.3669    98540.745    22.173227    20.368464    13.009591 
    1140   -193068.66    -193457.9    389.23755    84.903206    2649.9763    98540.745    22.169505    20.367579    12.940629 
    1150   -193068.67   -193449.96    381.29387    83.170476    2647.9029    98540.745    22.166526    20.365799    12.874039 
    1160   -193068.69   -193442.17    373.47619    81.465229    2651.0362    98540.745    22.163917     20.36343    12.809507 
    1170   -193068.67   -193435.01    366.33414    79.907354    2655.1877    98540.745    22.161369    20.360518    12.746991 
    1180   -193068.67   -193428.28    359.61069     78.44079    2661.1855    98540.745    22.158594    20.356971    12.686579 
    1190   -193068.62   -193421.96     353.3381    77.072568    2669.0281    98540.745    22.155313    20.352671    12.628423 
    1200   -193068.65   -193419.54     350.8899     76.53855    2678.2941    98540.745     22.15128     20.34751    12.572723 
    1210   -193068.18   -193402.77    334.59209    72.983558    2798.4228    98540.745    22.146278    20.341378     12.51963 
    1220   -193068.19   -193400.08    331.88984    72.394124    2708.8862    98540.745    22.140207    20.334291    12.469347 
    1230   -193068.18   -193392.24    324.06331    70.686948    2721.7509    98540.745    22.133273    20.326556    12.422464 
    1240   -193069.35   -193388.15    318.79545    69.537885    2729.6808    98540.745    22.125576    20.318308    12.379277 
    1250   -193068.41   -193376.46    308.04565    67.193065    2732.5428    98540.745    22.116457     20.30969    12.340073 
    1260   -193068.75   -193382.16    313.41748    68.364804    2783.2891    98540.745    22.106275    20.300273    12.304078 
    1270   -193068.79   -193377.35    308.56569    67.306499    2776.9336    98540.745    22.095108    20.289963    12.271089 
    1280   -193068.79   -193373.98    305.18888    66.569926    2805.2795    98540.745     22.08304    20.278714    12.241158 
    1290   -193068.76   -193360.94     292.1774    63.731771    2854.3031    98540.745    22.069753    20.266974    12.215109 
    1300   -193068.73   -193349.11    280.38043    61.158534    2879.3877    98540.745    22.054013    20.256206    12.195411 
    1310   -193068.74   -193363.61    294.87562    64.320326    2863.9586    98540.745    22.035428    20.247194    12.184048 
    1320   -193068.75   -193377.81     309.0568    67.413622    2821.5406    98540.745    22.014962    20.238555    12.180229 
    1330   -193068.74   -193377.78    309.04089    67.410152    2784.6409    98540.745    21.993619     20.22826    12.181433 
    1340   -193068.78   -193372.84    304.05832     66.32332    2747.8175    98540.745    21.972198    20.215524    12.185406 
    1350    -193068.8   -193360.16    291.35995    63.553463    2730.1716    98540.745    21.951416    20.200092    12.190028 
    1360   -193068.82   -193355.26    286.43975    62.480234    2748.3445    98540.745    21.931576    20.181787    12.193853 
    1370   -193068.82   -193356.86    288.04827    62.831095    2749.5912    98540.745    21.912807    20.161064    12.197509 
    1380   -193068.81   -193362.08    293.26904    63.969886    2735.3508    98540.745    21.895128    20.138144    12.201221 
    1390    -193068.8   -193375.63    306.83454    66.928887    2708.4066    98540.745    21.878288    20.112967    12.204215 
    1400    -193068.8   -193392.03    323.23091    70.505378    2735.1157    98540.745    21.861966    20.085566    12.206032 
    1410    -193068.8   -193402.02    333.22269    72.684856    2757.3834    98540.745    21.846286    20.056364    12.208185 
    1420   -193068.81   -193403.72    334.91564    73.054133     2793.467    98540.745    21.831392    20.025653    12.211807 
    1430   -193068.77   -193392.47    323.69944    70.607578    2831.7877    98540.745     21.81816    19.993671     12.21898 
    1440   -193068.77   -193396.28    327.50463    71.437592    2831.9919    98540.745    21.808273    19.960365    12.232119 
    1450   -193068.81      -193417    348.18397    75.948313    2789.0464    98540.745    21.802201    19.925619    12.250789 
    1460   -193068.82   -193425.67    356.85596    77.839908    2767.3951    98540.745    21.798511     19.88989    12.272381 
    1470   -193068.81   -193427.65    358.83882    78.272424    2766.7672    98540.745    21.795691    19.853729    12.295492 
    1480   -193068.79    -193428.5    359.70198    78.460703      2755.53    98540.745    21.793428    19.817329    12.319919 
    1490   -193068.81    -193425.9    357.08941     77.89083    2787.0973    98540.745    21.791222    19.780706    12.345627 
    1500   -193068.79    -193424.7    355.91476    77.634608    2791.1804    98540.745    21.788543    19.742934    12.373772 
    1510   -193068.79   -193433.95    365.16293    79.651882    2763.2183    98540.745    21.785216    19.703123     12.40499 
    1520   -193068.79   -193446.63    377.83664     82.41636    2728.9198    98540.745    21.782005    19.661416    12.438346 
    1530   -193068.79   -193452.34    383.55382    83.663432    2713.1345    98540.745    21.779443    19.618935    12.472648 
    1540    -193068.8   -193455.19    386.39511    84.283193    2710.8877    98540.745    21.777518    19.576413    12.507331 
    1550   -193068.79   -193449.86    381.06726    83.121046    2733.5691    98540.745    21.775987    19.534458     12.54254 
    1560   -193068.79   -193442.21    373.42573    81.454222    2761.0573    98540.745    21.774761    19.494395    12.579383 
    1570    -193068.8   -193446.67    377.87164    82.423996    2751.6759    98540.745    21.774165    19.456701    12.619158 
    1580   -193068.81   -193452.87    384.06126    83.774117    2716.3407    98540.745    21.774224    19.420464    12.661289 
    1590    -193068.8   -193451.23    382.42971    83.418233    2684.3915    98540.745    21.774319    19.384469    12.704036 
    1600    -193068.8   -193444.96     376.1555    82.049658    2646.6481    98540.745    21.773865    19.348223    12.746233 
    1610   -193068.79   -193433.17    364.38167    79.481468    2601.0521    98540.745    21.772303    19.311575    12.786922 
    1620   -193068.78   -193424.56    355.78396    77.606077    2599.5061    98540.745    21.768854    19.274415    12.824824 
    1630   -193068.78   -193427.42     358.6459    78.230344    2602.3927    98540.745    21.763667    19.236957    12.859734 
    1640   -193068.78   -193440.74     371.9611    81.134748    2554.6208    98540.745     21.75792    19.199472    12.891717 
    1650    -193068.9   -193464.72    395.81569    86.338076    2563.0212    98540.745    21.752757    19.162211     12.91996 
    1660    -193068.8   -193468.28    399.47716    87.136743    2636.1278    98540.745    21.747356    19.125374    12.945071 
    1670    -193068.8   -193457.83    389.02562     84.85698    2683.9464    98540.745    21.741246    19.088812    12.969409 
    1680   -193068.79   -193445.24    376.45214    82.114364    2710.9151    98540.745    21.732397    19.051807     12.99455 
    1690   -193068.81   -193452.86    384.05098    83.771875    2693.4904    98540.745    21.719676    19.013475    13.021038 
    1700   -193068.81   -193459.48    390.67295    85.216305    2657.1976    98540.745    21.704637    18.974225    13.047783 
    1710   -193068.79   -193458.64    389.85129    85.037081    2635.6705    98540.745    21.689192    18.935038    13.073887 
    1720   -193068.77   -193456.46    387.69409    84.566536    2513.9027    98540.745    21.673721     18.89601    13.099209 
    1730   -193068.77   -193453.78    385.00534    83.980047    2614.3276    98540.745    21.657733    18.857428    13.123638 
    1740   -193068.79   -193451.07    382.28742    83.387197    2610.9805    98540.745     21.64135    18.818761    13.147428 
    1750    -193068.8   -193435.92    367.11166    80.076953    2652.3117    98540.745     21.62484    18.780397    13.170581 
    1760   -193068.75   -193408.49    339.74422    74.107377    2696.5822    98540.745    21.610433    18.745225    13.192345 
    1770   -193068.79   -193425.35    356.55986    77.775321     2710.272    98540.745    21.600641    18.715942    13.211133 
    1780   -193068.84   -193445.43    376.59676    82.145909    2682.3345    98540.745    21.593979    18.690643      13.2272 
    1790   -193068.82   -193414.96    346.13964    75.502391    2726.6624    98540.745    21.587175      18.6658    13.242894 
    1800   -193068.75   -193380.26    311.51049    67.948838     2753.556    98540.745     21.57745    18.639437    13.263592 
    1810   -193068.84   -193410.75    341.90689    74.579113    2751.7546    98540.745    21.563575    18.611256    13.292564 
    1820    -193068.8   -193423.99    355.19075    77.476682     2665.992    98540.745    21.547703    18.580794    13.325508 
    1830   -193068.75    -193422.7    353.95465    77.207054    2649.6791    98540.745    21.531244    18.549256     13.35838 
    1840   -193068.77    -193434.4    365.62554    79.752789    2638.6723    98540.745    21.513947    18.517877    13.391551 
    1850   -193068.77   -193433.15    364.37546    79.480114    2648.4743    98540.745    21.496443     18.48796    13.424468 
    1860   -193068.78   -193435.79    367.01422    80.055699    2650.2538    98540.745     21.47914    18.459663     13.45678 
    1870   -193068.78   -193436.94    368.15578    80.304703    2644.8872    98540.745    21.461855    18.431281    13.488703 
    1880   -193068.79   -193438.77    369.98391     80.70347    2629.1733    98540.745    21.444416    18.401254    13.520446 
    1890    -193068.8   -193436.76    367.96623    80.263359    2605.7182    98540.745    21.426596    18.369854    13.551789 
    1900   -193068.98   -193429.51    360.52923    78.641147    2572.6283    98540.745    21.408286    18.338018    13.582059 
    1910   -193068.79   -193406.54    337.75288    73.673012    2536.2611    98540.745    21.389466    18.306061     13.60971 
    1920   -193068.78   -193390.94    322.15844    70.271445    2504.7699    98540.745    21.370324    18.275448    13.634029 
    1930   -193068.77   -193381.63    312.85697    68.242542    2502.2978    98540.745    21.351092    18.246932    13.654398 
    1940   -193068.76   -193380.66    311.89856    68.033487    2490.3528    98540.745    21.331966    18.220488    13.670871 
    1950   -193068.77   -193389.17    320.40486    69.888942    2489.0223    98540.745    21.313153    18.196071    13.683311 
    1960   -193068.77   -193400.49    331.71835    72.356718    2523.8045    98540.745     21.29478    18.173246    13.692058 
    1970   -193068.77   -193409.09    340.32095    74.233178    2554.2855    98540.745    21.276793    18.151252    13.698219 
    1980   -193068.79   -193410.73    341.93942    74.586209    2594.1326    98540.745      21.2591    18.129637    13.702687 
    1990   -193068.78   -193400.03    331.25174    72.254938    2635.1934    98540.745    21.241194    18.107926    13.707177 
    2000   -193068.78   -193395.02    326.24076    71.161908    2642.1977    98540.745    21.222115    18.085926    13.713939 
    2010   -193068.79   -193401.38    332.58225    72.545157    2610.4782    98540.745    21.201581    18.063957    13.723193 
    2020   -193068.79   -193400.68    331.89585    72.395435    2569.7887    98540.745    21.180519    18.042053    13.732932 
    2030   -193068.78   -193392.16    323.38214    70.538366    2535.1089    98540.745    21.159924    18.019849     13.74147 
    2040   -193068.78   -193378.21    309.43916    67.497026    2488.4459    98540.745    21.140315    17.996986    13.748121 
    2050   -193068.76    -193362.8    294.04232     64.13856    2465.4796    98540.745    21.122366    17.972869    13.752103 
    2060   -193068.76   -193356.55    287.79165    62.775121    2466.5989    98540.745    21.106469    17.947018    13.753073 
    2070   -193068.76   -193359.64    290.88605    63.450093    2460.7826    98540.745    21.092502    17.919356    13.751354 
    2080   -193068.77   -193372.47    303.70743    66.246781    2465.6668    98540.745    21.080575    17.889645    13.747003 
    2090   -193068.77   -193386.53    317.75498     69.31093    2506.9158    98540.745    21.070562    17.858101    13.740314 
    2100   -193068.91   -193401.58    332.67522    72.565438    2536.2367    98540.745    21.061975     17.82566    13.731911 
    2110   -193068.78   -193402.62    333.83399    72.818196    2572.5345    98540.745     21.05441    17.793404    13.722225 
    2120   -193068.77   -193401.55    332.77762    72.587773    2594.1513    98540.745    21.046878    17.761957    13.712034 
    2130   -193068.77   -193405.81    337.03528    73.516484    2594.7924    98540.745    21.038881    17.732613    13.701488 
    2140   -193068.78    -193409.1    340.31563    74.232016    2589.6505    98540.745    21.030604    17.705168    13.690366 
    2150   -193068.75   -193400.53    331.77811    72.369753     2582.347    98540.745    21.022397    17.676687    13.678539 
    2160   -193068.76   -193403.03    334.26905    72.913095    2553.3056    98540.745    21.014111    17.644439    13.665684 
    2170   -193068.78   -193410.92    342.14288    74.630588     2517.491    98540.745    21.005668    17.609026    13.651535 
    2180    -193068.7   -193389.74    321.04014    70.027512    2572.1948    98540.745    20.998123    17.572715    13.638741 
    2190   -193068.77   -193400.25    331.47758    72.304199    2516.7571    98540.745    20.993987    17.536433    13.630357 
    2200   -193068.83   -193399.32    330.48977    72.088731    2582.4769    98540.745    20.989845    17.499556    13.621888 
    2210   -193068.75   -193382.74    313.99766    68.491358    2588.9834    98540.745    20.983314    17.460704    13.614867 
    2220   -193068.79   -193407.66    338.87237    73.917203    2578.6127    98540.745    20.972748    17.419541    13.612159 
    2230   -193068.83   -193425.03    356.19832     77.69646    2574.5988    98540.745     20.96029    17.375877    13.611717 
    2240   -193068.74   -193395.56    326.81684    71.287567    2576.2327    98540.745    20.949221    17.333358    13.608114 
    2250   -193068.77    -193404.1    335.33002    73.144522    2529.3282    98540.745    20.941514    17.295138    13.597952 
    2260   -193068.78   -193421.69    352.91079     76.97936    2461.6208    98540.745    20.936507    17.259726    13.583081 
    2270   -193068.76   -193418.45    349.68549    76.275836    2447.4794    98540.745    20.931959    17.224793    13.567149 
    2280   -193068.71   -193404.15    335.44473    73.169541    2558.5163    98540.745    20.925906    17.189981    13.551098 
    2290   -193068.76   -193410.46    341.70515    74.535109     2476.447    98540.745    20.918571    17.156132    13.533683 
    2300   -193068.77   -193415.41    346.64017     75.61157    2498.0842    98540.745    20.909962    17.120909    13.515252 
    2310   -193068.79    -193416.6     347.8046    75.865562    2486.0658    98540.745    20.899648    17.085091    13.495112 
    2320   -193068.76   -193402.84    334.07895    72.871629    2495.6224    98540.745    20.888838    17.051438    13.474604 
    2330   -193068.77    -193409.2    340.43073    74.257124    2480.5747    98540.745    20.878605     17.02257    13.454665 
    2340   -193068.78   -193421.92    353.13545    77.028365    2443.0649    98540.745    20.868972    16.997534    13.434747 
    2350   -193068.76   -193421.14    352.38263    76.864155    2415.2954    98540.745    20.859797    16.972836    13.414395 
    2360   -193068.83   -193418.18    349.34815    76.202253    2414.8234    98540.745    20.851299    16.946272    13.393318 
    2370   -193068.79   -193420.36    351.56704    76.686251    2393.9239    98540.745    20.843134    16.918718    13.373024 
    2380   -193068.76   -193427.94    359.18564    78.348074     2354.589    98540.745    20.836281    16.892276    13.351874 
    2390   -193068.76   -193426.83    358.06329    78.103259    2368.7798    98540.745    20.829532     16.86576     13.33029 
    2400   -193068.75   -193421.25    352.49937    76.889618    2384.2917    98540.745     20.82234    16.839853    13.309979 
    2410   -193068.72   -193412.77    344.04768    75.046078    2414.2313    98540.745    20.814315    16.814963     13.29225 
    2420   -193068.77   -193418.16    349.38711    76.210751     2385.441    98540.745    20.805152    16.790046    13.275678 
    2430   -193068.82   -193432.75    363.92231    79.381269     2378.366    98540.745    20.798009    16.764929    13.258853 
    2440   -193068.78   -193420.77    351.99388    76.779357    2377.0027    98540.745    20.792326     16.73848    13.239804 
    2450   -193068.74   -193411.73    342.98247    74.813726    2380.7676    98540.745    20.783119    16.709777     13.21688 
    2460   -193068.79   -193436.08    367.29146    80.116172    2353.6187    98540.745    20.769704    16.677875    13.188483 
    2470   -193068.79    -193433.3    364.51348     79.51022    2351.4286    98540.745    20.755216    16.644615    13.156928 
    2480   -193068.73    -193414.9    346.17628    75.510382    2361.4691    98540.745     20.74371    16.613521    13.127571 
    2490    -193068.8   -193442.86    374.06441    81.593535    2342.5189    98540.745    20.736879    16.586285    13.103444 
    2500    -193068.8    -193444.8    376.00961    82.017837    2338.7693    98540.745    20.732382    16.560312    13.081859 
    2510   -193068.74   -193421.95    353.20725    77.044026    2352.2138    98540.745    20.726006    16.531741      13.0572 
    2520   -193068.79   -193438.86    370.07531    80.723405    2331.7564    98540.745    20.716013     16.49913    13.026208 
    2530    -193068.8    -193450.8    382.00311    83.325181    2306.9963    98540.745    20.703887    16.464067    12.990994 
    2540   -193068.77    -193437.6    368.83491     80.45284     2311.892    98540.745    20.692469    16.429491     12.95574 
    2550   -193068.76   -193436.76     368.0018    80.271117    2296.7855    98540.745    20.684312    16.397442    12.922582 
    2560   -193068.74   -193436.53    367.79031    80.224985     2290.433    98540.745    20.679325    16.368127     12.89147 
    2570   -193068.76   -193432.67    363.91508    79.379693    2242.7443    98540.745    20.673846    16.340962    12.861656 
    2580   -193068.75   -193428.39    359.63315    78.445689    2231.4955    98540.745    20.668291    16.314254    12.831894 
    2590    -193068.7   -193431.49    362.79604      79.1356    2255.6436    98540.745    20.662688    16.287886    12.802252 
    2600   -193068.75   -193438.49    369.73747    80.649714      2246.59    98540.745     20.65835    16.262998    12.773725 
    2610   -193068.76   -193434.24    365.48687    79.722542    2274.6129    98540.745    20.653043     16.23931    12.746383 
    2620   -193068.76   -193428.47    359.70893    78.462219    2315.5406    98540.745    20.646141    16.217106    12.720967 
    2630   -193068.76   -193422.12    353.35973    77.077286    2321.0026    98540.745    20.637784    16.196081    12.698264 
    2640   -193068.77   -193415.55    346.77678    75.641367    2338.6472    98540.745    20.628505    16.175667    12.678104 
    2650   -193068.76   -193406.74    337.98475    73.723589    2333.1134    98540.745    20.617859    16.152835    12.661219 
    2660   -193068.79    -193412.5    343.70811    74.972009    2317.4014    98540.745    20.606085    16.126608    12.647961 
    2670   -193068.75   -193409.72    340.97035    74.374829    2282.3562    98540.745    20.593812    16.098168    12.637797 
    2680   -193068.72   -193395.95    327.23101    71.377909    2303.3122    98540.745    20.581212    16.070082    12.629673 
    2690   -193068.76    -193384.6    315.84519    68.894353    2277.6346    98540.745    20.565866    16.042416    12.623191 
    2700   -193068.76   -193380.33    311.56657    67.961072    2275.6809    98540.745    20.549305    16.016008    12.619839 
    2710   -193068.76   -193378.99    310.22916    67.669346    2284.9417    98540.745    20.531885    15.991185    12.619923 
    2720   -193068.75    -193383.3    314.55308    68.612509    2318.5605    98540.745    20.514051    15.967627    12.623026 
    2730   -193068.78   -193386.57    317.79473    69.319601    2304.7598    98540.745     20.49726    15.944021    12.627833 
    2740   -193068.78   -193380.39    311.61006    67.970557    2319.9658    98540.745    20.478857    15.920734    12.634767 
    2750   -193068.78    -193381.5    312.71254    68.211038    2316.9189    98540.745    20.458293    15.897305    12.643446 
    2760   -193068.78   -193387.56    318.78024    69.534568    2300.5139    98540.745    20.435919     15.87375    12.653977 
    2770   -193068.84    -193392.2    323.36052    70.533649     2283.559    98540.745    20.412496    15.850466    12.666898 
    2780   -193068.75   -193376.74    307.98483    67.179796    2285.1056    98540.745    20.387882    15.829164    12.681868 
    2790   -193068.76   -193374.55    305.79825    66.702845    2246.3688    98540.745    20.362407    15.809616    12.698835 
    2800   -193068.75   -193373.38    304.63261    66.448587    2211.8796    98540.745    20.336731    15.790332    12.717551 
    2810   -193068.75   -193374.19    305.44461    66.625706    2225.0296    98540.745    20.310617    15.771143    12.736746 
    2820   -193068.81   -193384.27    315.46392    68.811187     2248.844    98540.745     20.28312    15.751315    12.754707 
    2830   -193068.76   -193385.03    316.27404    68.987897    2255.9895    98540.745    20.253503    15.731667    12.769985 
    2831   -193068.76   -193385.57    316.81265    69.105382    2257.9207    98540.745    20.250445     15.72986    12.771374 
Loop time of 386.292 on 1 procs for 2223 steps with 1539 atoms

Performance: 0.050 ns/day, 482.696 hours/ns, 5.755 timesteps/s
99.5% CPU use with 1 MPI tasks x no OpenMP threads

MPI task timing breakdown:
Section |  min time  |  avg time  |  max time  |%varavg| %total
---------------------------------------------------------------
Pair    | 356.82     | 356.82     | 356.82     |   0.0 | 92.37
Bond    | 0.0014055  | 0.0014055  | 0.0014055  |   0.0 |  0.00
Neigh   | 0.57663    | 0.57663    | 0.57663    |   0.0 |  0.15
Comm    | 0.12086    | 0.12086    | 0.12086    |   0.0 |  0.03
Output  | 0.14029    | 0.14029    | 0.14029    |   0.0 |  0.04
Modify  | 28.612     | 28.612     | 28.612     |   0.0 |  7.41
Other   |            | 0.0186     |            |       |  0.00

Nlocal:    1539 ave 1539 max 1539 min
Histogram: 1 0 0 0 0 0 0 0 0 0
Nghost:    5967 ave 5967 max 5967 min
Histogram: 1 0 0 0 0 0 0 0 0 0
Neighs:    312681 ave 312681 max 312681 min
Histogram: 1 0 0 0 0 0 0 0 0 0

Total # of neighbors = 312681
Ave neighs/atom = 203.172
Ave special neighs/atom = 0
Neighbor list builds = 22
Dangerous builds not checked

#Exit the simulation
unfix		qeq
unfix		dyn
unfix		frags
unfix		bonds
clear



Please see the log.cite file for references relevant to this simulation

Total wall time: 0:08:38
